
     Program PWSCF v.6.1 (svn rev. 13369) starts on 12Nov2017 at 13: 0:28 

     This program is part of the open-source Quantum ESPRESSO suite
     for quantum simulation of materials; please cite
         "P. Giannozzi et al., J. Phys.:Condens. Matter 21 395502 (2009);
          URL http://www.quantum-espresso.org", 
     in publications or presentations arising from this work. More details at
     http://www.quantum-espresso.org/quote

     Parallel version (MPI), running on     4 processors
     R & G space division:  proc/nbgrp/npool/nimage =       4
     Waiting for input...
     Reading input from standard input
     Message from routine read_cards :
     DEPRECATED: no units specified in ATOMIC_POSITIONS card
     Message from routine read_cards :
     ATOMIC_POSITIONS: units set to alat

     Current dimensions of program PWSCF are:
     Max number of different atomic species (ntypx) = 10
     Max number of k-points (npk) =  40000
     Max angular momentum in pseudopotentials (lmaxx) =  3

     Subspace diagonalization in iterative solution of the eigenvalue problem:
     a serial algorithm will be used


     Parallelization info
     --------------------
     sticks:   dense  smooth     PW     G-vecs:    dense   smooth      PW
     Min         631     315     94                20912     7399    1227
     Max         632     316     95                20916     7403    1228
     Sum        2527    1261    379                83659    29603    4909



     bravais-lattice index     =            2
     lattice parameter (alat)  =      12.5650  a.u.
     unit-cell volume          =     495.9381 (a.u.)^3
     number of atoms/cell      =            2
     number of atomic types    =            1
     number of electrons       =        28.00
     number of Kohn-Sham states=           14
     kinetic-energy cutoff     =      58.0000  Ry
     charge density cutoff     =     464.0000  Ry
     convergence threshold     =      1.0E-08
     mixing beta               =       0.7000
     number of iterations used =            8  plain     mixing
     Exchange-correlation      =  SLA  PW   PBX  PBC ( 1  4  3  4 0 0)

     celldm(1)=  12.565000  celldm(2)=   0.000000  celldm(3)=   0.000000
     celldm(4)=   0.000000  celldm(5)=   0.000000  celldm(6)=   0.000000

     crystal axes: (cart. coord. in units of alat)
               a(1) = (  -0.500000   0.000000   0.500000 )  
               a(2) = (   0.000000   0.500000   0.500000 )  
               a(3) = (  -0.500000   0.500000   0.000000 )  

     reciprocal axes: (cart. coord. in units 2 pi/alat)
               b(1) = ( -1.000000 -1.000000  1.000000 )  
               b(2) = (  1.000000  1.000000  1.000000 )  
               b(3) = ( -1.000000  1.000000 -1.000000 )  


     PseudoPot. # 1 for Sn read from file:
     /home/s1333534/quantum_espresso/qe-6.1/pseudo/sn_pbe_v1.4.uspp.F.UPF
     MD5 check sum: 469debedee59599fedebd795477fea03
     Pseudo is Ultrasoft + core correction, Zval = 14.0
     Generated by new atomic code, or converted to UPF format
     Using radial grid of  891 points,  6 beta functions with: 
                l(1) =   0
                l(2) =   0
                l(3) =   1
                l(4) =   1
                l(5) =   2
                l(6) =   2
     Q(r) pseudized with  8 coefficients,  rinner =    1.350   1.350   1.350
                                                       1.350   1.350

     atomic species   valence    mass     pseudopotential
        Sn            14.00   118.71000     Sn( 1.00)

     48 Sym. Ops., with inversion, found (24 have fractional translation)



   Cartesian axes

     site n.     atom                  positions (alat units)
         1           Sn  tau(   1) = (   0.0000000   0.0000000   0.0000000  )
         2           Sn  tau(   2) = (   0.2500000   0.2500000   0.2500000  )

     number of k points=    60
                       cart. coord. in units 2pi/alat
        k(    1) = (  -0.0625000   0.0625000   0.0625000), wk =   0.0078125
        k(    2) = (  -0.1875000   0.1875000  -0.0625000), wk =   0.0234375
        k(    3) = (  -0.3125000   0.3125000  -0.1875000), wk =   0.0234375
        k(    4) = (  -0.4375000   0.4375000  -0.3125000), wk =   0.0234375
        k(    5) = (   0.4375000  -0.4375000   0.5625000), wk =   0.0234375
        k(    6) = (   0.3125000  -0.3125000   0.4375000), wk =   0.0234375
        k(    7) = (   0.1875000  -0.1875000   0.3125000), wk =   0.0234375
        k(    8) = (   0.0625000  -0.0625000   0.1875000), wk =   0.0234375
        k(    9) = (  -0.0625000   0.3125000   0.0625000), wk =   0.0234375
        k(   10) = (  -0.1875000   0.4375000  -0.0625000), wk =   0.0468750
        k(   11) = (  -0.3125000   0.5625000  -0.1875000), wk =   0.0468750
        k(   12) = (   0.5625000  -0.3125000   0.6875000), wk =   0.0468750
        k(   13) = (   0.4375000  -0.1875000   0.5625000), wk =   0.0468750
        k(   14) = (   0.3125000  -0.0625000   0.4375000), wk =   0.0468750
        k(   15) = (   0.1875000   0.0625000   0.3125000), wk =   0.0468750
        k(   16) = (  -0.0625000   0.5625000   0.0625000), wk =   0.0234375
        k(   17) = (  -0.1875000   0.6875000  -0.0625000), wk =   0.0468750
        k(   18) = (   0.6875000  -0.1875000   0.8125000), wk =   0.0468750
        k(   19) = (   0.5625000  -0.0625000   0.6875000), wk =   0.0468750
        k(   20) = (   0.4375000   0.0625000   0.5625000), wk =   0.0468750
        k(   21) = (   0.3125000   0.1875000   0.4375000), wk =   0.0468750
        k(   22) = (  -0.0625000   0.8125000   0.0625000), wk =   0.0234375
        k(   23) = (   0.8125000  -0.0625000   0.9375000), wk =   0.0468750
        k(   24) = (   0.6875000   0.0625000   0.8125000), wk =   0.0468750
        k(   25) = (   0.5625000   0.1875000   0.6875000), wk =   0.0468750
        k(   26) = (   0.4375000   0.3125000   0.5625000), wk =   0.0468750
        k(   27) = (  -0.0625000  -0.9375000   0.0625000), wk =   0.0234375
        k(   28) = (  -0.1875000  -0.8125000  -0.0625000), wk =   0.0468750
        k(   29) = (  -0.3125000  -0.6875000  -0.1875000), wk =   0.0468750
        k(   30) = (  -0.0625000  -0.6875000   0.0625000), wk =   0.0234375
        k(   31) = (  -0.1875000  -0.5625000  -0.0625000), wk =   0.0468750
        k(   32) = (  -0.0625000  -0.4375000   0.0625000), wk =   0.0234375
        k(   33) = (  -0.1875000   0.1875000   0.1875000), wk =   0.0078125
        k(   34) = (  -0.3125000   0.3125000   0.0625000), wk =   0.0234375
        k(   35) = (  -0.4375000   0.4375000  -0.0625000), wk =   0.0234375
        k(   36) = (   0.4375000  -0.4375000   0.8125000), wk =   0.0234375
        k(   37) = (   0.3125000  -0.3125000   0.6875000), wk =   0.0234375
        k(   38) = (   0.1875000  -0.1875000   0.5625000), wk =   0.0234375
        k(   39) = (  -0.1875000   0.4375000   0.1875000), wk =   0.0234375
        k(   40) = (  -0.3125000   0.5625000   0.0625000), wk =   0.0468750
        k(   41) = (   0.5625000  -0.3125000   0.9375000), wk =   0.0468750
        k(   42) = (   0.4375000  -0.1875000   0.8125000), wk =   0.0468750
        k(   43) = (   0.3125000  -0.0625000   0.6875000), wk =   0.0468750
        k(   44) = (  -0.1875000   0.6875000   0.1875000), wk =   0.0234375
        k(   45) = (   0.6875000  -0.1875000   1.0625000), wk =   0.0468750
        k(   46) = (   0.5625000  -0.0625000   0.9375000), wk =   0.0468750
        k(   47) = (   0.4375000   0.0625000   0.8125000), wk =   0.0468750
        k(   48) = (  -0.1875000  -1.0625000   0.1875000), wk =   0.0234375
        k(   49) = (  -0.3125000  -0.9375000   0.0625000), wk =   0.0468750
        k(   50) = (  -0.1875000  -0.8125000   0.1875000), wk =   0.0234375
        k(   51) = (  -0.3125000   0.3125000   0.3125000), wk =   0.0078125
        k(   52) = (  -0.4375000   0.4375000   0.1875000), wk =   0.0234375
        k(   53) = (   0.4375000  -0.4375000   1.0625000), wk =   0.0234375
        k(   54) = (   0.3125000  -0.3125000   0.9375000), wk =   0.0234375
        k(   55) = (  -0.3125000   0.5625000   0.3125000), wk =   0.0234375
        k(   56) = (   0.5625000  -0.3125000   1.1875000), wk =   0.0468750
        k(   57) = (   0.4375000  -0.1875000   1.0625000), wk =   0.0468750
        k(   58) = (  -0.3125000  -1.1875000   0.3125000), wk =   0.0234375
        k(   59) = (  -0.4375000   0.4375000   0.4375000), wk =   0.0078125
        k(   60) = (   0.4375000  -0.4375000   1.3125000), wk =   0.0234375

     Dense  grid:    83659 G-vectors     FFT dimensions: (  64,  64,  64)

     Smooth grid:    29603 G-vectors     FFT dimensions: (  45,  45,  45)

     Estimated max dynamical RAM per process >      27.01MB

     Estimated total allocated dynamical RAM >     108.02MB

     Initial potential from superposition of free atoms

     starting charge   25.99991, renormalised to   28.00000
     Starting wfc are   18 randomized atomic wfcs

     total cpu time spent up to now is        1.8 secs

     per-process dynamical memory:    30.4 Mb

     Self-consistent Calculation

     iteration #  1     ecut=    58.00 Ry     beta=0.70
     Davidson diagonalization with overlap
     ethr =  1.00E-02,  avg # of iterations =  2.6

     total cpu time spent up to now is        5.6 secs

     total energy              =    -317.49383735 Ry
     Harris-Foulkes estimate   =    -319.55623275 Ry
     estimated scf accuracy    <       2.51338325 Ry

     iteration #  2     ecut=    58.00 Ry     beta=0.70
     Davidson diagonalization with overlap
     ethr =  8.98E-03,  avg # of iterations =  3.0

     total cpu time spent up to now is        9.8 secs

     total energy              =    -318.40200733 Ry
     Harris-Foulkes estimate   =    -318.71996405 Ry
     estimated scf accuracy    <       0.47330119 Ry

     iteration #  3     ecut=    58.00 Ry     beta=0.70
     Davidson diagonalization with overlap
     ethr =  1.69E-03,  avg # of iterations =  2.0

     total cpu time spent up to now is       13.5 secs

     total energy              =    -318.49700255 Ry
     Harris-Foulkes estimate   =    -318.49856140 Ry
     estimated scf accuracy    <       0.00286434 Ry

     iteration #  4     ecut=    58.00 Ry     beta=0.70
     Davidson diagonalization with overlap
     ethr =  1.02E-05,  avg # of iterations =  3.1

     total cpu time spent up to now is       17.5 secs

     total energy              =    -318.49788378 Ry
     Harris-Foulkes estimate   =    -318.49800186 Ry
     estimated scf accuracy    <       0.00017501 Ry

     iteration #  5     ecut=    58.00 Ry     beta=0.70
     Davidson diagonalization with overlap
     ethr =  6.25E-07,  avg # of iterations =  3.0

     total cpu time spent up to now is       21.5 secs

     total energy              =    -318.49793746 Ry
     Harris-Foulkes estimate   =    -318.49793831 Ry
     estimated scf accuracy    <       0.00000167 Ry

     iteration #  6     ecut=    58.00 Ry     beta=0.70
     Davidson diagonalization with overlap
     ethr =  5.98E-09,  avg # of iterations =  3.9

     total cpu time spent up to now is       25.8 secs

     total energy              =    -318.49793826 Ry
     Harris-Foulkes estimate   =    -318.49793830 Ry
     estimated scf accuracy    <       0.00000006 Ry

     iteration #  7     ecut=    58.00 Ry     beta=0.70
     Davidson diagonalization with overlap
     ethr =  2.29E-10,  avg # of iterations =  3.2

     total cpu time spent up to now is       29.9 secs

     End of self-consistent calculation

          k =-0.0625 0.0625 0.0625 (  3707 PWs)   bands (ev):

   -14.6230 -14.6230 -14.6195 -14.5672 -14.5672 -14.3268 -14.3268 -14.3173
   -14.3055 -14.3055  -3.1479   5.4065   6.9676   6.9676

          k =-0.1875 0.1875-0.0625 (  3702 PWs)   bands (ev):

   -14.6348 -14.6298 -14.6160 -14.5563 -14.5495 -14.3498 -14.3406 -14.3151
   -14.2999 -14.2875  -2.9626   4.2352   6.2875   6.8302

          k =-0.3125 0.3125-0.1875 (  3697 PWs)   bands (ev):

   -14.6459 -14.6428 -14.6048 -14.5386 -14.5290 -14.3682 -14.3566 -14.3304
   -14.2828 -14.2754  -2.5223   2.6671   5.7943   6.4077

          k =-0.4375 0.4375-0.3125 (  3707 PWs)   bands (ev):

   -14.6515 -14.6510 -14.5942 -14.5256 -14.5182 -14.3757 -14.3665 -14.3457
   -14.2718 -14.2703  -1.9412   1.3657   5.5484   6.0489

          k = 0.4375-0.4375 0.5625 (  3708 PWs)   bands (ev):

   -14.6547 -14.6508 -14.5913 -14.5193 -14.5186 -14.3747 -14.3723 -14.3489
   -14.2713 -14.2673  -1.6838   0.9219   5.5481   5.8754

          k = 0.3125-0.3125 0.4375 (  3698 PWs)   bands (ev):

   -14.6520 -14.6464 -14.5985 -14.5287 -14.5201 -14.3777 -14.3625 -14.3387
   -14.2771 -14.2698  -2.1333   1.7411   5.7776   5.9250

          k = 0.1875-0.1875 0.3125 (  3699 PWs)   bands (ev):

   -14.6430 -14.6378 -14.6104 -14.5446 -14.5338 -14.3681 -14.3472 -14.3242
   -14.2880 -14.2792  -2.6933   3.1829   6.1944   6.1951

          k = 0.0625-0.0625 0.1875 (  3713 PWs)   bands (ev):

   -14.6289 -14.6261 -14.6200 -14.5630 -14.5549 -14.3479 -14.3272 -14.3139
   -14.3048 -14.2941  -3.0546   4.7488   6.6222   6.6551

          k =-0.0625 0.3125 0.0625 (  3688 PWs)   bands (ev):

   -14.6353 -14.6318 -14.6215 -14.5540 -14.5343 -14.3747 -14.3329 -14.3069
   -14.2992 -14.2873  -2.8687   3.9461   6.1520   6.1673

          k =-0.1875 0.4375-0.0625 (  3691 PWs)   bands (ev):

   -14.6482 -14.6431 -14.6088 -14.5380 -14.5106 -14.3999 -14.3496 -14.3175
   -14.2844 -14.2740  -2.5081   2.8393   5.3807   5.9294

          k =-0.3125 0.5625-0.1875 (  3703 PWs)   bands (ev):

   -14.6623 -14.6518 -14.5866 -14.5202 -14.4967 -14.4106 -14.3684 -14.3432
   -14.2710 -14.2592  -1.9466   1.5989   4.8733   5.6294

          k = 0.5625-0.3125 0.6875 (  3699 PWs)   bands (ev):

   -14.6687 -14.6562 -14.5712 -14.5069 -14.4996 -14.4012 -14.3856 -14.3616
   -14.2645 -14.2523  -1.4897   0.8380   4.6119   5.5626

          k = 0.4375-0.1875 0.5625 (  3700 PWs)   bands (ev):

   -14.6651 -14.6562 -14.5743 -14.5181 -14.4983 -14.4004 -14.3728 -14.3624
   -14.2643 -14.2569  -1.7582   1.2643   4.6155   5.7695

          k = 0.3125-0.0625 0.4375 (  3701 PWs)   bands (ev):

   -14.6529 -14.6505 -14.5939 -14.5342 -14.5103 -14.3930 -14.3586 -14.3362
   -14.2752 -14.2680  -2.3424   2.4078   4.9718   6.1572

          k = 0.1875 0.0625 0.3125 (  3691 PWs)   bands (ev):

   -14.6413 -14.6358 -14.6128 -14.5491 -14.5333 -14.3716 -14.3430 -14.3157
   -14.2941 -14.2802  -2.7798   3.5571   5.8264   6.4499

          k =-0.0625 0.5625 0.0625 (  3684 PWs)   bands (ev):

   -14.6499 -14.6472 -14.6129 -14.5230 -14.4802 -14.4371 -14.3617 -14.3069
   -14.2780 -14.2741  -2.2270   2.3019   5.2632   5.3515

          k =-0.1875 0.6875-0.0625 (  3696 PWs)   bands (ev):

   -14.6623 -14.6570 -14.5887 -14.5022 -14.4625 -14.4556 -14.3831 -14.3333
   -14.2645 -14.2588  -1.7132   1.3939   4.6988   5.0900

          k = 0.6875-0.1875 0.8125 (  3701 PWs)   bands (ev):

   -14.6764 -14.6618 -14.5585 -14.4823 -14.4654 -14.4498 -14.4062 -14.3651
   -14.2576 -14.2430  -1.1401   0.5943   4.1222   5.0591

          k = 0.5625-0.0625 0.6875 (  3696 PWs)   bands (ev):

   -14.6789 -14.6628 -14.5501 -14.4873 -14.4692 -14.4328 -14.4136 -14.3747
   -14.2559 -14.2409  -1.2042   0.6759   3.9093   5.3121

          k = 0.4375 0.0625 0.5625 (  3706 PWs)   bands (ev):

   -14.6680 -14.6590 -14.5675 -14.5175 -14.4885 -14.4113 -14.3740 -14.3683
   -14.2605 -14.2543  -1.7865   1.4319   4.2892   5.7459

          k = 0.3125 0.1875 0.4375 (  3699 PWs)   bands (ev):

   -14.6532 -14.6472 -14.5969 -14.5321 -14.5151 -14.3864 -14.3592 -14.3364
   -14.2774 -14.2684  -2.2709   2.1278   5.3380   6.0637

          k =-0.0625 0.8125 0.0625 (  3700 PWs)   bands (ev):

   -14.6620 -14.6596 -14.5823 -14.5021 -14.4789 -14.4197 -14.4048 -14.3390
   -14.2600 -14.2576  -1.2491   0.7395   4.7315   4.8570

          k = 0.8125-0.0625 0.9375 (  3706 PWs)   bands (ev):

   -14.6702 -14.6647 -14.5504 -14.5202 -14.4550 -14.4297 -14.4011 -14.3715
   -14.2536 -14.2483  -0.6299   0.0214   4.3893   4.7084

          k = 0.6875 0.0625 0.8125 (  3708 PWs)   bands (ev):

   -14.6796 -14.6644 -14.5460 -14.4796 -14.4607 -14.4382 -14.4273 -14.3760
   -14.2541 -14.2392  -0.7617   0.1859   3.9465   4.9468

          k = 0.5625 0.1875 0.6875 (  3697 PWs)   bands (ev):

   -14.6754 -14.6603 -14.5584 -14.4953 -14.4841 -14.4187 -14.4009 -14.3696
   -14.2592 -14.2449  -1.3060   0.7183   4.1694   5.3958

          k = 0.4375 0.3125 0.5625 (  3705 PWs)   bands (ev):

   -14.6600 -14.6525 -14.5842 -14.5189 -14.5106 -14.3857 -14.3724 -14.3539
   -14.2691 -14.2618  -1.7158   1.0559   5.1173   5.8100

          k =-0.0625-0.9375 0.0625 (  3706 PWs)   bands (ev):

   -14.6648 -14.6624 -14.5596 -14.5320 -14.4542 -14.4292 -14.3904 -14.3626
   -14.2559 -14.2536  -0.6484   0.0194   4.6229   4.7554

          k =-0.1875-0.8125-0.0625 (  3699 PWs)   bands (ev):

   -14.6675 -14.6620 -14.5714 -14.4925 -14.4794 -14.4277 -14.4055 -14.3505
   -14.2575 -14.2520  -1.2019   0.6908   4.4937   4.8365

          k =-0.3125-0.6875-0.1875 (  3696 PWs)   bands (ev):

   -14.6704 -14.6571 -14.5734 -14.5029 -14.4765 -14.4354 -14.3852 -14.3526
   -14.2638 -14.2500  -1.5615   1.0858   4.4479   5.2862

          k =-0.0625-0.6875 0.0625 (  3695 PWs)   bands (ev):

   -14.6569 -14.6544 -14.6003 -14.5021 -14.4700 -14.4501 -14.3820 -14.3199
   -14.2677 -14.2649  -1.7776   1.5043   4.9466   5.0576

          k =-0.1875-0.5625-0.0625 (  3686 PWs)   bands (ev):

   -14.6555 -14.6504 -14.6012 -14.5221 -14.4844 -14.4304 -14.3638 -14.3223
   -14.2738 -14.2668  -2.1509   2.1139   4.9981   5.4607

          k =-0.0625-0.4375 0.0625 (  3684 PWs)   bands (ev):

   -14.6424 -14.6393 -14.6199 -14.5405 -14.5088 -14.4050 -14.3449 -14.3024
   -14.2892 -14.2823  -2.5919   3.1207   5.6715   5.7282

          k =-0.1875 0.1875 0.1875 (  3695 PWs)   bands (ev):

   -14.6355 -14.6355 -14.6133 -14.5485 -14.5485 -14.3478 -14.3478 -14.3245
   -14.2884 -14.2884  -2.8724   3.7851   6.5706   6.5706

          k =-0.3125 0.3125 0.0625 (  3707 PWs)   bands (ev):

   -14.6469 -14.6429 -14.6032 -14.5424 -14.5263 -14.3727 -14.3562 -14.3255
   -14.2858 -14.2736  -2.6034   3.0052   5.3877   6.5390

          k =-0.4375 0.4375-0.0625 (  3703 PWs)   bands (ev):

   -14.6599 -14.6555 -14.5795 -14.5287 -14.5029 -14.3937 -14.3670 -14.3552
   -14.2645 -14.2641  -2.0995   1.9244   4.5899   6.1204

          k = 0.4375-0.4375 0.8125 (  3697 PWs)   bands (ev):

   -14.6705 -14.6579 -14.5655 -14.5091 -14.4943 -14.3984 -14.3914 -14.3681
   -14.2617 -14.2508  -1.5349   0.9611   4.3635   5.6990

          k = 0.3125-0.3125 0.6875 (  3694 PWs)   bands (ev):

   -14.6703 -14.6552 -14.5737 -14.5039 -14.4910 -14.4173 -14.3852 -14.3548
   -14.2659 -14.2502  -1.5205   0.9383   4.5423   5.4621

          k = 0.1875-0.1875 0.5625 (  3700 PWs)   bands (ev):

   -14.6598 -14.6486 -14.5968 -14.5213 -14.4901 -14.4225 -14.3655 -14.3285
   -14.2756 -14.2620  -2.0811   1.9116   5.0284   5.4713

          k =-0.1875 0.4375 0.1875 (  3699 PWs)   bands (ev):

   -14.6513 -14.6423 -14.6054 -14.5357 -14.5137 -14.3942 -14.3527 -14.3238
   -14.2837 -14.2708  -2.4280   2.5490   5.5852   5.8112

          k =-0.3125 0.5625 0.0625 (  3697 PWs)   bands (ev):

   -14.6609 -14.6561 -14.5840 -14.5209 -14.4889 -14.4200 -14.3675 -14.3448
   -14.2658 -14.2611  -2.0019   1.8013   4.6287   5.6322

          k = 0.5625-0.3125 0.9375 (  3701 PWs)   bands (ev):

   -14.6741 -14.6636 -14.5553 -14.5005 -14.4696 -14.4363 -14.3933 -14.3722
   -14.2558 -14.2464  -1.4143   0.9446   4.0962   5.2431

          k = 0.4375-0.1875 0.8125 (  3700 PWs)   bands (ev):

   -14.6776 -14.6646 -14.5488 -14.4867 -14.4657 -14.4431 -14.4074 -14.3755
   -14.2547 -14.2419  -1.1123   0.5513   4.0583   5.0288

          k = 0.3125-0.0625 0.6875 (  3700 PWs)   bands (ev):

   -14.6680 -14.6617 -14.5711 -14.5025 -14.4650 -14.4482 -14.3854 -14.3541
   -14.2587 -14.2528  -1.5889   1.1955   4.3798   5.1489

          k =-0.1875 0.6875 0.1875 (  3695 PWs)   bands (ev):

   -14.6673 -14.6548 -14.5839 -14.5022 -14.4664 -14.4499 -14.3838 -14.3394
   -14.2668 -14.2533  -1.6599   1.2765   4.5811   5.2014

          k = 0.6875-0.1875 1.0625 (  3705 PWs)   bands (ev):

   -14.6729 -14.6665 -14.5544 -14.4810 -14.4771 -14.4390 -14.4074 -14.3682
   -14.2527 -14.2464  -1.1143   0.5963   4.2330   4.7775

          k = 0.5625-0.0625 0.9375 (  3699 PWs)   bands (ev):

   -14.6782 -14.6729 -14.5220 -14.4876 -14.4601 -14.4353 -14.4259 -14.3968
   -14.2457 -14.2404  -0.5825   0.0240   4.0603   4.4574

          k = 0.4375 0.0625 0.8125 (  3702 PWs)   bands (ev):

   -14.6775 -14.6688 -14.5397 -14.4810 -14.4633 -14.4473 -14.4135 -14.3825
   -14.2502 -14.2418  -0.9993   0.4669   4.0244   4.7797

          k =-0.1875-1.0625 0.1875 (  3711 PWs)   bands (ev):

   -14.6759 -14.6626 -14.5517 -14.5022 -14.4568 -14.4288 -14.4179 -14.3707
   -14.2557 -14.2427  -0.6760   0.0799   4.1133   4.9207

          k =-0.3125-0.9375 0.0625 (  3703 PWs)   bands (ev):

   -14.6753 -14.6694 -14.5354 -14.5024 -14.4570 -14.4313 -14.4161 -14.3855
   -14.2491 -14.2432  -0.6027   0.0234   4.1782   4.5654

          k =-0.1875-0.8125 0.1875 (  3697 PWs)   bands (ev):

   -14.6730 -14.6599 -14.5676 -14.4807 -14.4801 -14.4380 -14.4056 -14.3550
   -14.2596 -14.2465  -1.1771   0.6521   4.2711   5.0154

          k =-0.3125 0.3125 0.3125 (  3693 PWs)   bands (ev):

   -14.6452 -14.6452 -14.6045 -14.5311 -14.5311 -14.3630 -14.3630 -14.3351
   -14.2775 -14.2775  -2.3633   2.2057   6.1851   6.1851

          k =-0.4375 0.4375 0.1875 (  3702 PWs)   bands (ev):

   -14.6565 -14.6536 -14.5857 -14.5276 -14.5098 -14.3858 -14.3655 -14.3520
   -14.2676 -14.2666  -2.0437   1.6847   4.9713   6.0980

          k = 0.4375-0.4375 1.0625 (  3705 PWs)   bands (ev):

   -14.6747 -14.6603 -14.5575 -14.5055 -14.4820 -14.4110 -14.3997 -14.3719
   -14.2586 -14.2464  -1.5155   1.0496   4.0389   5.6555

          k = 0.3125-0.3125 0.9375 (  3707 PWs)   bands (ev):

   -14.6810 -14.6623 -14.5504 -14.4659 -14.4647 -14.4508 -14.4231 -14.3730
   -14.2563 -14.2383  -0.9781   0.4161   3.8538   5.2337

          k =-0.3125 0.5625 0.3125 (  3719 PWs)   bands (ev):

   -14.6613 -14.6502 -14.5876 -14.5194 -14.5064 -14.3969 -14.3702 -14.3452
   -14.2727 -14.2601  -1.8449   1.3144   5.1299   5.6733

          k = 0.5625-0.3125 1.1875 (  3691 PWs)   bands (ev):

   -14.6725 -14.6602 -14.5622 -14.5032 -14.4830 -14.4215 -14.3895 -14.3672
   -14.2599 -14.2479  -1.4350   0.8823   4.3029   5.3548

          k = 0.4375-0.1875 1.0625 (  3707 PWs)   bands (ev):

   -14.6801 -14.6675 -14.5382 -14.4730 -14.4604 -14.4493 -14.4235 -14.3832
   -14.2512 -14.2390  -0.8751   0.3222   3.9187   4.8580

          k =-0.3125-1.1875 0.3125 (  3694 PWs)   bands (ev):

   -14.6772 -14.6596 -14.5599 -14.4844 -14.4763 -14.4365 -14.4046 -14.3654
   -14.2597 -14.2425  -1.2025   0.6236   4.0964   5.3116

          k =-0.4375 0.4375 0.4375 (  3723 PWs)   bands (ev):

   -14.6496 -14.6496 -14.5979 -14.5225 -14.5225 -14.3698 -14.3698 -14.3430
   -14.2727 -14.2727  -1.8116   1.0896   5.9718   5.9718

          k = 0.4375-0.4375 1.3125 (  3695 PWs)   bands (ev):

   -14.6631 -14.6542 -14.5784 -14.5140 -14.5088 -14.3832 -14.3816 -14.3596
   -14.2666 -14.2586  -1.5876   0.8881   4.9084   5.7777

     highest occupied level (ev):     6.9676

!    total energy              =    -318.49793829 Ry
     Harris-Foulkes estimate   =    -318.49793829 Ry
     estimated scf accuracy    <          2.6E-09 Ry

     The total energy is the sum of the following terms:

     one-electron contribution =    -162.00293470 Ry
     hartree contribution      =      97.52387754 Ry
     xc contribution           =     -85.96278616 Ry
     ewald contribution        =    -168.05609497 Ry

     convergence has been achieved in   7 iterations


     Computing stress (Cartesian axis) and pressure

          total   stress  (Ry/bohr**3)                   (kbar)     P=   -4.32
  -0.00002936   0.00000000  -0.00000000         -4.32      0.00     -0.00
  -0.00000000  -0.00002936  -0.00000000         -0.00     -4.32     -0.00
  -0.00000000  -0.00000000  -0.00002936         -0.00     -0.00     -4.32


     Writing output data file sn.alpha.58.save

     init_run     :      1.65s CPU      1.70s WALL (       1 calls)
     electrons    :     27.43s CPU     28.16s WALL (       1 calls)
     stress       :      1.23s CPU      1.27s WALL (       1 calls)

     Called by init_run:
     wfcinit      :      1.20s CPU      1.22s WALL (       1 calls)
     potinit      :      0.07s CPU      0.08s WALL (       1 calls)

     Called by electrons:
     c_bands      :     22.15s CPU     22.56s WALL (       7 calls)
     sum_band     :      4.24s CPU      4.42s WALL (       7 calls)
     v_of_rho     :      0.43s CPU      0.45s WALL (       8 calls)
     newd         :      0.67s CPU      0.74s WALL (       8 calls)
     mix_rho      :      0.04s CPU      0.04s WALL (       7 calls)

     Called by c_bands:
     init_us_2    :      0.56s CPU      0.56s WALL (     960 calls)
     cegterg      :     21.21s CPU     21.63s WALL (     420 calls)

     Called by sum_band:
     sum_band:bec :      0.00s CPU      0.00s WALL (     420 calls)
     addusdens    :      0.69s CPU      0.82s WALL (       7 calls)

     Called by *egterg:
     h_psi        :     19.13s CPU     19.54s WALL (    1729 calls)
     s_psi        :      0.34s CPU      0.34s WALL (    1729 calls)
     g_psi        :      0.10s CPU      0.10s WALL (    1249 calls)
     cdiaghg      :      0.74s CPU      0.74s WALL (    1669 calls)

     Called by h_psi:
     h_psi:pot    :     18.92s CPU     19.33s WALL (    1729 calls)
     h_psi:calbec :      0.63s CPU      0.64s WALL (    1729 calls)
     vloc_psi     :     17.83s CPU     18.22s WALL (    1729 calls)
     add_vuspsi   :      0.46s CPU      0.47s WALL (    1729 calls)

     General routines
     calbec       :      0.80s CPU      0.81s WALL (    2209 calls)
     fft          :      0.20s CPU      0.22s WALL (     138 calls)
     ffts         :      0.01s CPU      0.01s WALL (      15 calls)
     fftw         :     16.38s CPU     16.74s WALL (   45694 calls)
     interpolate  :      0.05s CPU      0.05s WALL (      15 calls)
     davcio       :      0.01s CPU      0.01s WALL (      60 calls)

     Parallel routines
     fft_scatter  :      2.39s CPU      2.41s WALL (   45847 calls)

     PWSCF        :    30.50s CPU        32.48s WALL


   This run was terminated on:  13: 1: 0  12Nov2017            

=------------------------------------------------------------------------------=
   JOB DONE.
=------------------------------------------------------------------------------=
