
     Program PWSCF v.6.1 (svn rev. 13369) starts on  6Dec2017 at 19:17:30 

     This program is part of the open-source Quantum ESPRESSO suite
     for quantum simulation of materials; please cite
         "P. Giannozzi et al., J. Phys.:Condens. Matter 21 395502 (2009);
          URL http://www.quantum-espresso.org", 
     in publications or presentations arising from this work. More details at
     http://www.quantum-espresso.org/quote

     Parallel version (MPI), running on     4 processors
     R & G space division:  proc/nbgrp/npool/nimage =       4
     Waiting for input...
     Reading input from standard input

     Current dimensions of program PWSCF are:
     Max number of different atomic species (ntypx) = 10
     Max number of k-points (npk) =  40000
     Max angular momentum in pseudopotentials (lmaxx) =  3

     Subspace diagonalization in iterative solution of the eigenvalue problem:
     a serial algorithm will be used


   Info: using nr1, nr2, nr3 values from input

     Parallelization info
     --------------------
     sticks:   dense  smooth     PW     G-vecs:    dense   smooth      PW
     Min        1219     485    198                17285     4372    1154
     Max        1222     486    199                17286     4373    1155
     Sum        4881    1941    793                69141    17489    4617



     bravais-lattice index     =            0
     lattice parameter (alat)  =      11.2375  a.u.
     unit-cell volume          =     366.7997 (a.u.)^3
     number of atoms/cell      =            2
     number of atomic types    =            1
     number of electrons       =        28.00
     number of Kohn-Sham states=           18
     kinetic-energy cutoff     =      50.0000  Ry
     charge density cutoff     =     500.0000  Ry
     convergence threshold     =      1.0E-08
     mixing beta               =       0.7000
     number of iterations used =            8  plain     mixing
     Exchange-correlation      =  SLA  PW   PBX  PBC ( 1  4  3  4 0 0)
     nstep                     =           50


     celldm(1)=  11.237464  celldm(2)=   0.000000  celldm(3)=   0.000000
     celldm(4)=   0.000000  celldm(5)=   0.000000  celldm(6)=   0.000000

     crystal axes: (cart. coord. in units of alat)
               a(1) = (   0.986020  -0.000000  -0.000000 )  
               a(2) = (  -0.000000   0.986020  -0.000000 )  
               a(3) = (   0.493010   0.493010   0.265859 )  

     reciprocal axes: (cart. coord. in units 2 pi/alat)
               b(1) = (  1.014178  0.000000 -1.880693 )  
               b(2) = (  0.000000  1.014178 -1.880693 )  
               b(3) = (  0.000000  0.000000  3.761386 )  


     PseudoPot. # 1 for Sn read from file:
     /home/s1333534/quantum_espresso/qe-6.1/pseudo/sn_pbe_v1.4.uspp.F.UPF
     MD5 check sum: 469debedee59599fedebd795477fea03
     Pseudo is Ultrasoft + core correction, Zval = 14.0
     Generated by new atomic code, or converted to UPF format
     Using radial grid of  891 points,  6 beta functions with: 
                l(1) =   0
                l(2) =   0
                l(3) =   1
                l(4) =   1
                l(5) =   2
                l(6) =   2
     Q(r) pseudized with  8 coefficients,  rinner =    1.350   1.350   1.350
                                                       1.350   1.350

     atomic species   valence    mass     pseudopotential
        Sn            14.00   118.71000     Sn( 1.00)

     16 Sym. Ops., with inversion, found (12 have fractional translation)



   Cartesian axes

     site n.     atom                  positions (alat units)
         1           Sn  tau(   1) = (   0.9860205   1.2325256   0.1993946  )
         2           Sn  tau(   2) = (   0.4930102   0.2465051   0.0664649  )

     number of k points=   687  Marzari-Vanderbilt smearing, width (Ry)=  0.0200

     Number of k-points >= 100: set verbosity='high' to print them.

     Dense  grid:    69141 G-vectors     FFT dimensions: (  80,  80,  80)

     Smooth grid:    17489 G-vectors     FFT dimensions: (  50,  50,  40)

     Estimated max dynamical RAM per process >     120.65MB

     Estimated total allocated dynamical RAM >     482.59MB

     Initial potential from superposition of free atoms

     starting charge   25.99991, renormalised to   28.00000
     Starting wfc are   18 randomized atomic wfcs

     total cpu time spent up to now is       21.4 secs

     per-process dynamical memory:   133.5 Mb

     Self-consistent Calculation

     iteration #  1     ecut=    50.00 Ry     beta=0.70
     Davidson diagonalization with overlap
     ethr =  1.00E-02,  avg # of iterations =  3.4

     total cpu time spent up to now is      104.1 secs

     total energy              =    -317.56745739 Ry
     Harris-Foulkes estimate   =    -319.49800101 Ry
     estimated scf accuracy    <       2.36461525 Ry

     iteration #  2     ecut=    50.00 Ry     beta=0.70
     Davidson diagonalization with overlap
     ethr =  8.45E-03,  avg # of iterations =  2.7

     total cpu time spent up to now is      176.9 secs

     total energy              =    -318.40144427 Ry
     Harris-Foulkes estimate   =    -318.67303512 Ry
     estimated scf accuracy    <       0.39453922 Ry

     iteration #  3     ecut=    50.00 Ry     beta=0.70
     Davidson diagonalization with overlap
     ethr =  1.41E-03,  avg # of iterations =  2.0

     total cpu time spent up to now is      246.8 secs

     total energy              =    -318.48210141 Ry
     Harris-Foulkes estimate   =    -318.48318713 Ry
     estimated scf accuracy    <       0.00201257 Ry

     iteration #  4     ecut=    50.00 Ry     beta=0.70
     Davidson diagonalization with overlap
     ethr =  7.19E-06,  avg # of iterations =  3.4

     total cpu time spent up to now is      327.3 secs

     total energy              =    -318.48257412 Ry
     Harris-Foulkes estimate   =    -318.48264746 Ry
     estimated scf accuracy    <       0.00010809 Ry

     iteration #  5     ecut=    50.00 Ry     beta=0.70
     Davidson diagonalization with overlap
     ethr =  3.86E-07,  avg # of iterations =  2.1

     total cpu time spent up to now is      396.0 secs

     total energy              =    -318.48260189 Ry
     Harris-Foulkes estimate   =    -318.48260182 Ry
     estimated scf accuracy    <       0.00000013 Ry

     iteration #  6     ecut=    50.00 Ry     beta=0.70
     Davidson diagonalization with overlap
     ethr =  4.59E-10,  avg # of iterations =  4.0

     total cpu time spent up to now is      490.0 secs

     End of self-consistent calculation

     Number of k-points >= 100: set verbosity='high' to print the bands.

     the Fermi energy is    10.7197 ev

!    total energy              =    -318.48260215 Ry
     Harris-Foulkes estimate   =    -318.48260215 Ry
     estimated scf accuracy    <          4.8E-09 Ry

     The total energy is the sum of the following terms:

     one-electron contribution =    -111.35838896 Ry
     hartree contribution      =      76.10417786 Ry
     xc contribution           =     -86.02593061 Ry
     ewald contribution        =    -197.20263782 Ry
     smearing contrib. (-TS)   =       0.00017737 Ry

     convergence has been achieved in   6 iterations

     Forces acting on atoms (cartesian axes, Ry/au):

     atom    1 type  1   force =     0.00000000    0.00000000   -0.00000000
     atom    2 type  1   force =     0.00000000    0.00000000    0.00000000

     Total force =     0.000000     Total SCF correction =     0.000000


     Computing stress (Cartesian axis) and pressure

          total   stress  (Ry/bohr**3)                   (kbar)     P=    0.47
   0.00000321   0.00000000   0.00000000          0.47      0.00      0.00
   0.00000000   0.00000321   0.00000000          0.00      0.47      0.00
   0.00000000   0.00000000   0.00000311          0.00      0.00      0.46


     BFGS Geometry Optimization

     bfgs converged in   1 scf cycles and   0 bfgs steps
     (criteria: energy <  1.0E-04 Ry, force <  1.0E-03Ry/Bohr, cell <  5.0E-01kbar)

     End of BFGS Geometry Optimization

     Final enthalpy =    -318.4826021538 Ry
Begin final coordinates
     new unit-cell volume =    366.79969 a.u.^3 (    54.35411 Ang^3 )
     density =      7.25327 g/cm^3

CELL_PARAMETERS (alat= 11.23746432)
   0.986020471  -0.000000000  -0.000000000
  -0.000000000   0.986020471  -0.000000000
   0.493010235   0.493010235   0.265859460

ATOMIC_POSITIONS (crystal)
Sn       0.625000000   0.875000000   0.750000000
Sn       0.375000000   0.125000000   0.250000000
End final coordinates



     A final scf calculation at the relaxed structure.
     The G-vectors are recalculated for the final unit cell
     Results may differ from those at the preceding step.

     Parallelization info
     --------------------
     sticks:   dense  smooth     PW     G-vecs:    dense   smooth      PW
     Min        1219     485    198                17285     4372    1154
     Max        1222     486    199                17286     4373    1155
     Sum        4881    1941    793                69141    17489    4617



     bravais-lattice index     =            0
     lattice parameter (alat)  =      11.2375  a.u.
     unit-cell volume          =     366.7997 (a.u.)^3
     number of atoms/cell      =            2
     number of atomic types    =            1
     number of electrons       =        28.00
     number of Kohn-Sham states=           18
     kinetic-energy cutoff     =      50.0000  Ry
     charge density cutoff     =     500.0000  Ry
     convergence threshold     =      1.0E-08
     mixing beta               =       0.7000
     number of iterations used =            8  plain     mixing
     Exchange-correlation      =  SLA  PW   PBX  PBC ( 1  4  3  4 0 0)

     celldm(1)=  11.237464  celldm(2)=   0.000000  celldm(3)=   0.000000
     celldm(4)=   0.000000  celldm(5)=   0.000000  celldm(6)=   0.000000

     crystal axes: (cart. coord. in units of alat)
               a(1) = (   0.986020  -0.000000  -0.000000 )  
               a(2) = (  -0.000000   0.986020  -0.000000 )  
               a(3) = (   0.493010   0.493010   0.265859 )  

     reciprocal axes: (cart. coord. in units 2 pi/alat)
               b(1) = (  1.014178  0.000000 -1.880693 )  
               b(2) = (  0.000000  1.014178 -1.880693 )  
               b(3) = (  0.000000  0.000000  3.761386 )  


     PseudoPot. # 1 for Sn read from file:
     /home/s1333534/quantum_espresso/qe-6.1/pseudo/sn_pbe_v1.4.uspp.F.UPF
     MD5 check sum: 469debedee59599fedebd795477fea03
     Pseudo is Ultrasoft + core correction, Zval = 14.0
     Generated by new atomic code, or converted to UPF format
     Using radial grid of  891 points,  6 beta functions with: 
                l(1) =   0
                l(2) =   0
                l(3) =   1
                l(4) =   1
                l(5) =   2
                l(6) =   2
     Q(r) pseudized with  8 coefficients,  rinner =    1.350   1.350   1.350
                                                       1.350   1.350

     atomic species   valence    mass     pseudopotential
        Sn            14.00   118.71000     Sn( 1.00)

     16 Sym. Ops., with inversion, found (12 have fractional translation)



   Cartesian axes

     site n.     atom                  positions (alat units)
         1           Sn  tau(   1) = (   0.9860205   1.2325256   0.1993946  )
         2           Sn  tau(   2) = (   0.4930102   0.2465051   0.0664649  )

     number of k points=   687  Marzari-Vanderbilt smearing, width (Ry)=  0.0200

     Number of k-points >= 100: set verbosity='high' to print them.

     Dense  grid:    69141 G-vectors     FFT dimensions: (  80,  80,  60)

     Smooth grid:    17489 G-vectors     FFT dimensions: (  50,  50,  40)

     Estimated max dynamical RAM per process >     118.45MB

     Estimated total allocated dynamical RAM >     473.80MB

     Initial potential from superposition of free atoms

     starting charge   25.99991, renormalised to   28.00000
     Starting wfc are   18 randomized atomic wfcs

     Writing output data file sn.beta.relax.save

     total cpu time spent up to now is      516.4 secs

     per-process dynamical memory:   143.4 Mb

     Self-consistent Calculation

     iteration #  1     ecut=    50.00 Ry     beta=0.70
     Davidson diagonalization with overlap
     c_bands:  1 eigenvalues not converged
     c_bands:  1 eigenvalues not converged
     c_bands:  1 eigenvalues not converged
     c_bands:  1 eigenvalues not converged
     c_bands:  1 eigenvalues not converged
     c_bands:  1 eigenvalues not converged
     c_bands:  1 eigenvalues not converged
     c_bands:  2 eigenvalues not converged
     c_bands:  1 eigenvalues not converged
     ethr =  1.00E-06,  avg # of iterations = 11.0

     total cpu time spent up to now is      648.6 secs

     total energy              =    -317.55688326 Ry
     Harris-Foulkes estimate   =    -319.49951950 Ry
     estimated scf accuracy    <       2.37914649 Ry

     iteration #  2     ecut=    50.00 Ry     beta=0.70
     Davidson diagonalization with overlap
     ethr =  8.50E-03,  avg # of iterations =  2.7

     total cpu time spent up to now is      706.6 secs

     total energy              =    -318.39986179 Ry
     Harris-Foulkes estimate   =    -318.67647105 Ry
     estimated scf accuracy    <       0.40227994 Ry

     iteration #  3     ecut=    50.00 Ry     beta=0.70
     Davidson diagonalization with overlap
     ethr =  1.44E-03,  avg # of iterations =  2.0

     total cpu time spent up to now is      761.0 secs

     total energy              =    -318.48208547 Ry
     Harris-Foulkes estimate   =    -318.48321710 Ry
     estimated scf accuracy    <       0.00209065 Ry

     iteration #  4     ecut=    50.00 Ry     beta=0.70
     Davidson diagonalization with overlap
     ethr =  7.47E-06,  avg # of iterations =  3.5

     total cpu time spent up to now is      822.2 secs

     total energy              =    -318.48257434 Ry
     Harris-Foulkes estimate   =    -318.48264941 Ry
     estimated scf accuracy    <       0.00011059 Ry

     iteration #  5     ecut=    50.00 Ry     beta=0.70
     Davidson diagonalization with overlap
     ethr =  3.95E-07,  avg # of iterations =  2.0

     total cpu time spent up to now is      877.4 secs

     total energy              =    -318.48260198 Ry
     Harris-Foulkes estimate   =    -318.48260190 Ry
     estimated scf accuracy    <       0.00000013 Ry

     iteration #  6     ecut=    50.00 Ry     beta=0.70
     Davidson diagonalization with overlap
     ethr =  4.63E-10,  avg # of iterations =  3.9

     total cpu time spent up to now is      948.8 secs

     End of self-consistent calculation

     Number of k-points >= 100: set verbosity='high' to print the bands.

     the Fermi energy is    10.7197 ev

!    total energy              =    -318.48260215 Ry
     Harris-Foulkes estimate   =    -318.48260215 Ry
     estimated scf accuracy    <          7.8E-09 Ry

     The total energy is the sum of the following terms:

     one-electron contribution =    -111.35851416 Ry
     hartree contribution      =      76.10433626 Ry
     xc contribution           =     -86.02596380 Ry
     ewald contribution        =    -197.20263782 Ry
     smearing contrib. (-TS)   =       0.00017737 Ry

     convergence has been achieved in   6 iterations

     Forces acting on atoms (cartesian axes, Ry/au):

     atom    1 type  1   force =     0.00000000    0.00000000    0.00000000
     atom    2 type  1   force =     0.00000000    0.00000000   -0.00000000

     Total force =     0.000000     Total SCF correction =     0.000000


     Computing stress (Cartesian axis) and pressure

          total   stress  (Ry/bohr**3)                   (kbar)     P=    0.87
   0.00000598   0.00000000   0.00000000          0.88      0.00      0.00
   0.00000000   0.00000598   0.00000000          0.00      0.88      0.00
   0.00000000   0.00000000   0.00000587          0.00      0.00      0.86


     Writing output data file sn.beta.relax.save

     init_run     :     38.26s CPU     39.21s WALL (       2 calls)
     electrons    :    881.49s CPU    900.94s WALL (       2 calls)
     forces       :      3.20s CPU      3.24s WALL (       2 calls)
     stress       :     11.64s CPU     11.72s WALL (       2 calls)

     Called by init_run:
     wfcinit      :     35.16s CPU     36.06s WALL (       2 calls)
     potinit      :      0.70s CPU      0.72s WALL (       2 calls)

     Called by electrons:
     c_bands      :    741.27s CPU    757.89s WALL (      12 calls)
     sum_band     :    137.67s CPU    140.31s WALL (      12 calls)
     v_of_rho     :      1.62s CPU      1.70s WALL (      14 calls)
     newd         :      1.02s CPU      1.13s WALL (      14 calls)
     mix_rho      :      0.15s CPU      0.15s WALL (      12 calls)

     Called by c_bands:
     init_us_2    :      6.29s CPU      6.39s WALL (   20610 calls)
     cegterg      :    730.45s CPU    746.85s WALL (    8244 calls)

     Called by sum_band:
     sum_band:bec :      0.10s CPU      0.11s WALL (    8244 calls)
     addusdens    :      1.10s CPU      1.30s WALL (      12 calls)

     Called by *egterg:
     h_psi        :    691.95s CPU    708.32s WALL (   38978 calls)
     s_psi        :      5.01s CPU      5.08s WALL (   38978 calls)
     g_psi        :      1.53s CPU      1.54s WALL (   29360 calls)
     cdiaghg      :     28.16s CPU     28.42s WALL (   37604 calls)

     Called by h_psi:
     h_psi:pot    :    688.83s CPU    705.14s WALL (   38978 calls)
     h_psi:calbec :     10.72s CPU     10.90s WALL (   38978 calls)
     vloc_psi     :    670.74s CPU    686.68s WALL (   38978 calls)
     add_vuspsi   :      7.34s CPU      7.43s WALL (   38978 calls)

     General routines
     calbec       :     14.63s CPU     14.80s WALL (   54092 calls)
     fft          :      1.38s CPU      1.48s WALL (     266 calls)
     ffts         :      0.02s CPU      0.02s WALL (      26 calls)
     fftw         :    505.19s CPU    517.51s WALL ( 1190338 calls)
     interpolate  :      0.18s CPU      0.19s WALL (      26 calls)
     davcio       :      0.03s CPU      0.06s WALL (    1374 calls)

     Parallel routines
     fft_scatter  :    106.31s CPU    109.63s WALL ( 1190630 calls)

     PWSCF        : 15m35.94s CPU    15m56.62s WALL


   This run was terminated on:  19:33:27   6Dec2017            

=------------------------------------------------------------------------------=
   JOB DONE.
=------------------------------------------------------------------------------=
