
     Program PWSCF v.6.1 (svn rev. 13369) starts on 13Nov2017 at 10: 4:19 

     This program is part of the open-source Quantum ESPRESSO suite
     for quantum simulation of materials; please cite
         "P. Giannozzi et al., J. Phys.:Condens. Matter 21 395502 (2009);
          URL http://www.quantum-espresso.org", 
     in publications or presentations arising from this work. More details at
     http://www.quantum-espresso.org/quote

     Parallel version (MPI), running on     4 processors
     R & G space division:  proc/nbgrp/npool/nimage =       4
     Waiting for input...
     Reading input from standard input

     Current dimensions of program PWSCF are:
     Max number of different atomic species (ntypx) = 10
     Max number of k-points (npk) =  40000
     Max angular momentum in pseudopotentials (lmaxx) =  3

     Subspace diagonalization in iterative solution of the eigenvalue problem:
     a serial algorithm will be used


     Parallelization info
     --------------------
     sticks:   dense  smooth     PW     G-vecs:    dense   smooth      PW
     Min        1089     437    179                14599     3692    1003
     Max        1090     438    180                14600     3693    1004
     Sum        4357    1749    717                58397    14769    4013



     bravais-lattice index     =            0
     lattice parameter (alat)  =      10.6000  a.u.
     unit-cell volume          =     309.4678 (a.u.)^3
     number of atoms/cell      =            2
     number of atomic types    =            1
     number of electrons       =        28.00
     number of Kohn-Sham states=           18
     kinetic-energy cutoff     =      50.0000  Ry
     charge density cutoff     =     500.0000  Ry
     convergence threshold     =      1.0E-08
     mixing beta               =       0.7000
     number of iterations used =            8  plain     mixing
     Exchange-correlation      =  SLA  PW   PBX  PBC ( 1  4  3  4 0 0)

     celldm(1)=  10.600000  celldm(2)=   0.000000  celldm(3)=   0.000000
     celldm(4)=   0.000000  celldm(5)=   0.000000  celldm(6)=   0.000000

     crystal axes: (cart. coord. in units of alat)
               a(1) = (   0.986837   0.000000   0.000000 )  
               a(2) = (   0.000000   0.986837   0.000000 )  
               a(3) = (   0.493419   0.493419   0.266813 )  

     reciprocal axes: (cart. coord. in units 2 pi/alat)
               b(1) = (  1.013339  0.000000 -1.873974 )  
               b(2) = (  0.000000  1.013339 -1.873974 )  
               b(3) = (  0.000000  0.000000  3.747943 )  


     PseudoPot. # 1 for Sn read from file:
     /home/s1333534/quantum_espresso/qe-6.1/pseudo/sn_pbe_v1.4.uspp.F.UPF
     MD5 check sum: 469debedee59599fedebd795477fea03
     Pseudo is Ultrasoft + core correction, Zval = 14.0
     Generated by new atomic code, or converted to UPF format
     Using radial grid of  891 points,  6 beta functions with: 
                l(1) =   0
                l(2) =   0
                l(3) =   1
                l(4) =   1
                l(5) =   2
                l(6) =   2
     Q(r) pseudized with  8 coefficients,  rinner =    1.350   1.350   1.350
                                                       1.350   1.350

     atomic species   valence    mass     pseudopotential
        Sn            14.00   118.71000     Sn( 1.00)

     No symmetry found



   Cartesian axes

     site n.     atom                  positions (alat units)
         1           Sn  tau(   1) = (   1.0725850   1.3160481   0.0533919  )
         2           Sn  tau(   2) = (   0.5198369   0.2763739   0.0177973  )

     number of k points=   800  Marzari-Vanderbilt smearing, width (Ry)=  0.0200

     Number of k-points >= 100: set verbosity='high' to print them.

     Dense  grid:    58397 G-vectors     FFT dimensions: (  75,  75,  60)

     Smooth grid:    14769 G-vectors     FFT dimensions: (  48,  48,  36)

     Estimated max dynamical RAM per process >     114.64MB

     Estimated total allocated dynamical RAM >     458.54MB

     Initial potential from superposition of free atoms

     starting charge   25.99991, renormalised to   28.00000
     Starting wfc are   18 randomized atomic wfcs

     total cpu time spent up to now is       13.8 secs

     per-process dynamical memory:   124.7 Mb

     Self-consistent Calculation

     iteration #  1     ecut=    50.00 Ry     beta=0.70
     Davidson diagonalization with overlap
     ethr =  1.00E-02,  avg # of iterations =  4.1

     total cpu time spent up to now is       68.0 secs

     total energy              =    -317.48569233 Ry
     Harris-Foulkes estimate   =    -319.36387386 Ry
     estimated scf accuracy    <       2.30310871 Ry

     iteration #  2     ecut=    50.00 Ry     beta=0.70
     Davidson diagonalization with overlap
     ethr =  8.23E-03,  avg # of iterations =  2.4

     total cpu time spent up to now is      113.0 secs

     total energy              =    -318.29755249 Ry
     Harris-Foulkes estimate   =    -318.57800176 Ry
     estimated scf accuracy    <       0.41294648 Ry

     iteration #  3     ecut=    50.00 Ry     beta=0.70
     Davidson diagonalization with overlap
     ethr =  1.47E-03,  avg # of iterations =  2.0

     total cpu time spent up to now is      156.9 secs

     total energy              =    -318.38303383 Ry
     Harris-Foulkes estimate   =    -318.38458985 Ry
     estimated scf accuracy    <       0.00266192 Ry

     iteration #  4     ecut=    50.00 Ry     beta=0.70
     Davidson diagonalization with overlap
     ethr =  9.51E-06,  avg # of iterations =  3.7

     total cpu time spent up to now is      209.0 secs

     total energy              =    -318.38361648 Ry
     Harris-Foulkes estimate   =    -318.38375368 Ry
     estimated scf accuracy    <       0.00027746 Ry

     iteration #  5     ecut=    50.00 Ry     beta=0.70
     Davidson diagonalization with overlap
     ethr =  9.91E-07,  avg # of iterations =  2.5

     total cpu time spent up to now is      248.1 secs

     total energy              =    -318.38365978 Ry
     Harris-Foulkes estimate   =    -318.38366904 Ry
     estimated scf accuracy    <       0.00001640 Ry

     iteration #  6     ecut=    50.00 Ry     beta=0.70
     Davidson diagonalization with overlap
     ethr =  5.86E-08,  avg # of iterations =  3.0

     total cpu time spent up to now is      297.6 secs

     total energy              =    -318.38366557 Ry
     Harris-Foulkes estimate   =    -318.38366597 Ry
     estimated scf accuracy    <       0.00000080 Ry

     iteration #  7     ecut=    50.00 Ry     beta=0.70
     Davidson diagonalization with overlap
     ethr =  2.86E-09,  avg # of iterations =  3.0

     total cpu time spent up to now is      344.8 secs

     total energy              =    -318.38366572 Ry
     Harris-Foulkes estimate   =    -318.38366582 Ry
     estimated scf accuracy    <       0.00000016 Ry

     iteration #  8     ecut=    50.00 Ry     beta=0.70
     Davidson diagonalization with overlap
     ethr =  5.60E-10,  avg # of iterations =  2.1

     total cpu time spent up to now is      389.0 secs

     End of self-consistent calculation

     Number of k-points >= 100: set verbosity='high' to print the bands.

     the Fermi energy is    13.5649 ev

!    total energy              =    -318.38366576 Ry
     Harris-Foulkes estimate   =    -318.38366576 Ry
     estimated scf accuracy    <          2.7E-09 Ry

     The total energy is the sum of the following terms:

     one-electron contribution =     -98.47285599 Ry
     hartree contribution      =      72.28180588 Ry
     xc contribution           =     -86.29181043 Ry
     ewald contribution        =    -205.90082212 Ry
     smearing contrib. (-TS)   =       0.00001690 Ry

     convergence has been achieved in   8 iterations

     Writing output data file sn.beta.10.60.save

     init_run     :     13.19s CPU     13.71s WALL (       1 calls)
     electrons    :    364.13s CPU    375.30s WALL (       1 calls)

     Called by init_run:
     wfcinit      :     12.24s CPU     12.73s WALL (       1 calls)
     potinit      :      0.24s CPU      0.26s WALL (       1 calls)

     Called by electrons:
     c_bands      :    304.19s CPU    313.57s WALL (       8 calls)
     sum_band     :     58.49s CPU     60.15s WALL (       8 calls)
     v_of_rho     :      0.73s CPU      0.77s WALL (       9 calls)
     newd         :      0.74s CPU      0.79s WALL (       9 calls)
     mix_rho      :      0.07s CPU      0.07s WALL (       8 calls)

     Called by c_bands:
     init_us_2    :      3.70s CPU      3.77s WALL (   13600 calls)
     cegterg      :    297.19s CPU    306.40s WALL (    6400 calls)

     Called by sum_band:
     sum_band:bec :      0.06s CPU      0.09s WALL (    6400 calls)
     addusdens    :      0.84s CPU      0.95s WALL (       8 calls)

     Called by *egterg:
     h_psi        :    269.64s CPU    278.64s WALL (   25446 calls)
     s_psi        :      2.55s CPU      2.58s WALL (   25446 calls)
     g_psi        :      0.78s CPU      0.80s WALL (   18246 calls)
     cdiaghg      :     16.12s CPU     16.30s WALL (   24646 calls)

     Called by h_psi:
     h_psi:pot    :    268.26s CPU    277.17s WALL (   25446 calls)
     h_psi:calbec :      6.07s CPU      6.23s WALL (   25446 calls)
     vloc_psi     :    258.68s CPU    267.29s WALL (   25446 calls)
     add_vuspsi   :      3.49s CPU      3.56s WALL (   25446 calls)

     General routines
     calbec       :      7.99s CPU      8.17s WALL (   31846 calls)
     fft          :      0.49s CPU      0.54s WALL (     140 calls)
     ffts         :      0.01s CPU      0.01s WALL (      17 calls)
     fftw         :    205.21s CPU    211.74s WALL (  804974 calls)
     interpolate  :      0.08s CPU      0.09s WALL (      17 calls)
     davcio       :      0.01s CPU      0.03s WALL (     800 calls)

     Parallel routines
     fft_scatter  :     53.54s CPU     55.18s WALL (  805131 calls)

     PWSCF        :  6m18.36s CPU     6m44.40s WALL


   This run was terminated on:  10:11: 4  13Nov2017            

=------------------------------------------------------------------------------=
   JOB DONE.
=------------------------------------------------------------------------------=
