
     Program PWSCF v.6.1 (svn rev. 13369) starts on 13Nov2017 at  1:46:56 

     This program is part of the open-source Quantum ESPRESSO suite
     for quantum simulation of materials; please cite
         "P. Giannozzi et al., J. Phys.:Condens. Matter 21 395502 (2009);
          URL http://www.quantum-espresso.org", 
     in publications or presentations arising from this work. More details at
     http://www.quantum-espresso.org/quote

     Parallel version (MPI), running on     4 processors
     R & G space division:  proc/nbgrp/npool/nimage =       4
     Waiting for input...
     Reading input from standard input

     Current dimensions of program PWSCF are:
     Max number of different atomic species (ntypx) = 10
     Max number of k-points (npk) =  40000
     Max angular momentum in pseudopotentials (lmaxx) =  3

     Subspace diagonalization in iterative solution of the eigenvalue problem:
     a serial algorithm will be used


     Parallelization info
     --------------------
     sticks:   dense  smooth     PW     G-vecs:    dense   smooth      PW
     Min        1187     473    192                16713     4232    1090
     Max        1188     474    193                16714     4233    1091
     Sum        4749    1893    769                66853    16929    4361



     bravais-lattice index     =            0
     lattice parameter (alat)  =      11.0900  a.u.
     unit-cell volume          =     354.3990 (a.u.)^3
     number of atoms/cell      =            2
     number of atomic types    =            1
     number of electrons       =        28.00
     number of Kohn-Sham states=           18
     kinetic-energy cutoff     =      50.0000  Ry
     charge density cutoff     =     500.0000  Ry
     convergence threshold     =      1.0E-08
     mixing beta               =       0.7000
     number of iterations used =            8  plain     mixing
     Exchange-correlation      =  SLA  PW   PBX  PBC ( 1  4  3  4 0 0)

     celldm(1)=  11.090000  celldm(2)=   0.000000  celldm(3)=   0.000000
     celldm(4)=   0.000000  celldm(5)=   0.000000  celldm(6)=   0.000000

     crystal axes: (cart. coord. in units of alat)
               a(1) = (   0.986837   0.000000   0.000000 )  
               a(2) = (   0.000000   0.986837   0.000000 )  
               a(3) = (   0.493419   0.493419   0.266813 )  

     reciprocal axes: (cart. coord. in units 2 pi/alat)
               b(1) = (  1.013339  0.000000 -1.873974 )  
               b(2) = (  0.000000  1.013339 -1.873974 )  
               b(3) = (  0.000000  0.000000  3.747943 )  


     PseudoPot. # 1 for Sn read from file:
     /home/s1333534/quantum_espresso/qe-6.1/pseudo/sn_pbe_v1.4.uspp.F.UPF
     MD5 check sum: 469debedee59599fedebd795477fea03
     Pseudo is Ultrasoft + core correction, Zval = 14.0
     Generated by new atomic code, or converted to UPF format
     Using radial grid of  891 points,  6 beta functions with: 
                l(1) =   0
                l(2) =   0
                l(3) =   1
                l(4) =   1
                l(5) =   2
                l(6) =   2
     Q(r) pseudized with  8 coefficients,  rinner =    1.350   1.350   1.350
                                                       1.350   1.350

     atomic species   valence    mass     pseudopotential
        Sn            14.00   118.71000     Sn( 1.00)

     No symmetry found



   Cartesian axes

     site n.     atom                  positions (alat units)
         1           Sn  tau(   1) = (   1.0725850   1.3160481   0.0533919  )
         2           Sn  tau(   2) = (   0.5198369   0.2763739   0.0177973  )

     number of k points=   448  Marzari-Vanderbilt smearing, width (Ry)=  0.0200

     Number of k-points >= 100: set verbosity='high' to print them.

     Dense  grid:    66853 G-vectors     FFT dimensions: (  80,  80,  60)

     Smooth grid:    16929 G-vectors     FFT dimensions: (  50,  50,  40)

     Estimated max dynamical RAM per process >      80.05MB

     Estimated total allocated dynamical RAM >     320.20MB

     Initial potential from superposition of free atoms

     starting charge   25.99991, renormalised to   28.00000
     Starting wfc are   18 randomized atomic wfcs

     total cpu time spent up to now is       11.7 secs

     per-process dynamical memory:    87.8 Mb

     Self-consistent Calculation

     iteration #  1     ecut=    50.00 Ry     beta=0.70
     Davidson diagonalization with overlap
     ethr =  1.00E-02,  avg # of iterations =  4.0

     total cpu time spent up to now is       55.2 secs

     total energy              =    -317.50339006 Ry
     Harris-Foulkes estimate   =    -319.44955879 Ry
     estimated scf accuracy    <       2.38359614 Ry

     iteration #  2     ecut=    50.00 Ry     beta=0.70
     Davidson diagonalization with overlap
     ethr =  8.51E-03,  avg # of iterations =  2.6

     total cpu time spent up to now is       92.7 secs

     total energy              =    -318.34573576 Ry
     Harris-Foulkes estimate   =    -318.64032973 Ry
     estimated scf accuracy    <       0.43347814 Ry

     iteration #  3     ecut=    50.00 Ry     beta=0.70
     Davidson diagonalization with overlap
     ethr =  1.55E-03,  avg # of iterations =  2.0

     total cpu time spent up to now is      129.1 secs

     total energy              =    -318.43556509 Ry
     Harris-Foulkes estimate   =    -318.43724274 Ry
     estimated scf accuracy    <       0.00284878 Ry

     iteration #  4     ecut=    50.00 Ry     beta=0.70
     Davidson diagonalization with overlap
     ethr =  1.02E-05,  avg # of iterations =  3.6

     total cpu time spent up to now is      170.3 secs

     total energy              =    -318.43616901 Ry
     Harris-Foulkes estimate   =    -318.43632392 Ry
     estimated scf accuracy    <       0.00031001 Ry

     iteration #  5     ecut=    50.00 Ry     beta=0.70
     Davidson diagonalization with overlap
     ethr =  1.11E-06,  avg # of iterations =  2.6

     total cpu time spent up to now is      201.8 secs

     total energy              =    -318.43621773 Ry
     Harris-Foulkes estimate   =    -318.43622781 Ry
     estimated scf accuracy    <       0.00001742 Ry

     iteration #  6     ecut=    50.00 Ry     beta=0.70
     Davidson diagonalization with overlap
     ethr =  6.22E-08,  avg # of iterations =  3.0

     total cpu time spent up to now is      241.3 secs

     total energy              =    -318.43622429 Ry
     Harris-Foulkes estimate   =    -318.43622467 Ry
     estimated scf accuracy    <       0.00000084 Ry

     iteration #  7     ecut=    50.00 Ry     beta=0.70
     Davidson diagonalization with overlap
     ethr =  2.99E-09,  avg # of iterations =  2.9

     total cpu time spent up to now is      276.4 secs

     total energy              =    -318.43622441 Ry
     Harris-Foulkes estimate   =    -318.43622452 Ry
     estimated scf accuracy    <       0.00000017 Ry

     iteration #  8     ecut=    50.00 Ry     beta=0.70
     Davidson diagonalization with overlap
     ethr =  6.03E-10,  avg # of iterations =  2.9

     total cpu time spent up to now is      315.0 secs

     End of self-consistent calculation

     Number of k-points >= 100: set verbosity='high' to print the bands.

     the Fermi energy is    11.2513 ev

!    total energy              =    -318.43622446 Ry
     Harris-Foulkes estimate   =    -318.43622447 Ry
     estimated scf accuracy    <          5.3E-09 Ry

     The total energy is the sum of the following terms:

     one-electron contribution =    -112.77629962 Ry
     hartree contribution      =      77.25676684 Ry
     xc contribution           =     -86.11346090 Ry
     ewald contribution        =    -196.80331059 Ry
     smearing contrib. (-TS)   =       0.00007980 Ry

     convergence has been achieved in   8 iterations

     Writing output data file sn.beta.11.09.save

     init_run     :     11.26s CPU     11.62s WALL (       1 calls)
     electrons    :    296.23s CPU    303.43s WALL (       1 calls)

     Called by init_run:
     wfcinit      :     10.21s CPU     10.53s WALL (       1 calls)
     potinit      :      0.28s CPU      0.29s WALL (       1 calls)

     Called by electrons:
     c_bands      :    246.60s CPU    252.51s WALL (       8 calls)
     sum_band     :     47.97s CPU     49.09s WALL (       8 calls)
     v_of_rho     :      0.85s CPU      0.90s WALL (       9 calls)
     newd         :      0.84s CPU      0.91s WALL (       9 calls)
     mix_rho      :      0.08s CPU      0.08s WALL (       8 calls)

     Called by c_bands:
     init_us_2    :      2.39s CPU      2.43s WALL (    7616 calls)
     cegterg      :    242.03s CPU    247.85s WALL (    3584 calls)

     Called by sum_band:
     sum_band:bec :      0.04s CPU      0.05s WALL (    3584 calls)
     addusdens    :      0.97s CPU      1.07s WALL (       8 calls)

     Called by *egterg:
     h_psi        :    227.13s CPU    232.87s WALL (   14576 calls)
     s_psi        :      2.00s CPU      2.02s WALL (   14576 calls)
     g_psi        :      0.51s CPU      0.52s WALL (   10544 calls)
     cdiaghg      :      9.16s CPU      9.29s WALL (   14128 calls)

     Called by h_psi:
     h_psi:pot    :    225.82s CPU    231.54s WALL (   14576 calls)
     h_psi:calbec :      4.39s CPU      4.47s WALL (   14576 calls)
     vloc_psi     :    218.24s CPU    223.81s WALL (   14576 calls)
     add_vuspsi   :      3.18s CPU      3.21s WALL (   14576 calls)

     General routines
     calbec       :      5.81s CPU      5.89s WALL (   18160 calls)
     fft          :      0.57s CPU      0.62s WALL (     140 calls)
     ffts         :      0.01s CPU      0.01s WALL (      17 calls)
     fftw         :    180.09s CPU    184.83s WALL (  448518 calls)
     interpolate  :      0.10s CPU      0.11s WALL (      17 calls)
     davcio       :      0.01s CPU      0.02s WALL (     448 calls)

     Parallel routines
     fft_scatter  :     33.31s CPU     34.36s WALL (  448675 calls)

     PWSCF        :  5m 8.11s CPU     5m22.50s WALL


   This run was terminated on:   1:52:18  13Nov2017            

=------------------------------------------------------------------------------=
   JOB DONE.
=------------------------------------------------------------------------------=
