
     Program PWSCF v.6.1 (svn rev. 13369) starts on 11Nov2017 at 16:14:27 

     This program is part of the open-source Quantum ESPRESSO suite
     for quantum simulation of materials; please cite
         "P. Giannozzi et al., J. Phys.:Condens. Matter 21 395502 (2009);
          URL http://www.quantum-espresso.org", 
     in publications or presentations arising from this work. More details at
     http://www.quantum-espresso.org/quote

     Parallel version (MPI), running on     4 processors
     R & G space division:  proc/nbgrp/npool/nimage =       4
     Waiting for input...
     Reading input from standard input
     Message from routine read_cards :
     DEPRECATED: no units specified in ATOMIC_POSITIONS card
     Message from routine read_cards :
     ATOMIC_POSITIONS: units set to alat

     Current dimensions of program PWSCF are:
     Max number of different atomic species (ntypx) = 10
     Max number of k-points (npk) =  40000
     Max angular momentum in pseudopotentials (lmaxx) =  3

     Subspace diagonalization in iterative solution of the eigenvalue problem:
     a serial algorithm will be used


     Parallelization info
     --------------------
     sticks:   dense  smooth     PW     G-vecs:    dense   smooth      PW
     Min         555     274     84                17169     6011    1003
     Max         556     275     85                17171     6012    1005
     Sum        2221    1099    337                68681    24045    4015



     bravais-lattice index     =            2
     lattice parameter (alat)  =      12.6500  a.u.
     unit-cell volume          =     506.0712 (a.u.)^3
     number of atoms/cell      =            2
     number of atomic types    =            1
     number of electrons       =        28.00
     number of Kohn-Sham states=           14
     kinetic-energy cutoff     =      50.0000  Ry
     charge density cutoff     =     400.0000  Ry
     convergence threshold     =      1.0E-08
     mixing beta               =       0.7000
     number of iterations used =            8  plain     mixing
     Exchange-correlation      =  SLA  PW   PBX  PBC ( 1  4  3  4 0 0)

     celldm(1)=  12.650000  celldm(2)=   0.000000  celldm(3)=   0.000000
     celldm(4)=   0.000000  celldm(5)=   0.000000  celldm(6)=   0.000000

     crystal axes: (cart. coord. in units of alat)
               a(1) = (  -0.500000   0.000000   0.500000 )  
               a(2) = (   0.000000   0.500000   0.500000 )  
               a(3) = (  -0.500000   0.500000   0.000000 )  

     reciprocal axes: (cart. coord. in units 2 pi/alat)
               b(1) = ( -1.000000 -1.000000  1.000000 )  
               b(2) = (  1.000000  1.000000  1.000000 )  
               b(3) = ( -1.000000  1.000000 -1.000000 )  


     PseudoPot. # 1 for Sn read from file:
     /home/s1333534/quantum_espresso/qe-6.1/pseudo/sn_pbe_v1.4.uspp.F.UPF
     MD5 check sum: 469debedee59599fedebd795477fea03
     Pseudo is Ultrasoft + core correction, Zval = 14.0
     Generated by new atomic code, or converted to UPF format
     Using radial grid of  891 points,  6 beta functions with: 
                l(1) =   0
                l(2) =   0
                l(3) =   1
                l(4) =   1
                l(5) =   2
                l(6) =   2
     Q(r) pseudized with  8 coefficients,  rinner =    1.350   1.350   1.350
                                                       1.350   1.350

     atomic species   valence    mass     pseudopotential
        Sn            14.00   118.71000     Sn( 1.00)

     48 Sym. Ops., with inversion, found (24 have fractional translation)



   Cartesian axes

     site n.     atom                  positions (alat units)
         1           Sn  tau(   1) = (   0.0000000   0.0000000   0.0000000  )
         2           Sn  tau(   2) = (   0.2500000   0.2500000   0.2500000  )

     number of k points=    60
                       cart. coord. in units 2pi/alat
        k(    1) = (  -0.0625000   0.0625000   0.0625000), wk =   0.0078125
        k(    2) = (  -0.1875000   0.1875000  -0.0625000), wk =   0.0234375
        k(    3) = (  -0.3125000   0.3125000  -0.1875000), wk =   0.0234375
        k(    4) = (  -0.4375000   0.4375000  -0.3125000), wk =   0.0234375
        k(    5) = (   0.4375000  -0.4375000   0.5625000), wk =   0.0234375
        k(    6) = (   0.3125000  -0.3125000   0.4375000), wk =   0.0234375
        k(    7) = (   0.1875000  -0.1875000   0.3125000), wk =   0.0234375
        k(    8) = (   0.0625000  -0.0625000   0.1875000), wk =   0.0234375
        k(    9) = (  -0.0625000   0.3125000   0.0625000), wk =   0.0234375
        k(   10) = (  -0.1875000   0.4375000  -0.0625000), wk =   0.0468750
        k(   11) = (  -0.3125000   0.5625000  -0.1875000), wk =   0.0468750
        k(   12) = (   0.5625000  -0.3125000   0.6875000), wk =   0.0468750
        k(   13) = (   0.4375000  -0.1875000   0.5625000), wk =   0.0468750
        k(   14) = (   0.3125000  -0.0625000   0.4375000), wk =   0.0468750
        k(   15) = (   0.1875000   0.0625000   0.3125000), wk =   0.0468750
        k(   16) = (  -0.0625000   0.5625000   0.0625000), wk =   0.0234375
        k(   17) = (  -0.1875000   0.6875000  -0.0625000), wk =   0.0468750
        k(   18) = (   0.6875000  -0.1875000   0.8125000), wk =   0.0468750
        k(   19) = (   0.5625000  -0.0625000   0.6875000), wk =   0.0468750
        k(   20) = (   0.4375000   0.0625000   0.5625000), wk =   0.0468750
        k(   21) = (   0.3125000   0.1875000   0.4375000), wk =   0.0468750
        k(   22) = (  -0.0625000   0.8125000   0.0625000), wk =   0.0234375
        k(   23) = (   0.8125000  -0.0625000   0.9375000), wk =   0.0468750
        k(   24) = (   0.6875000   0.0625000   0.8125000), wk =   0.0468750
        k(   25) = (   0.5625000   0.1875000   0.6875000), wk =   0.0468750
        k(   26) = (   0.4375000   0.3125000   0.5625000), wk =   0.0468750
        k(   27) = (  -0.0625000  -0.9375000   0.0625000), wk =   0.0234375
        k(   28) = (  -0.1875000  -0.8125000  -0.0625000), wk =   0.0468750
        k(   29) = (  -0.3125000  -0.6875000  -0.1875000), wk =   0.0468750
        k(   30) = (  -0.0625000  -0.6875000   0.0625000), wk =   0.0234375
        k(   31) = (  -0.1875000  -0.5625000  -0.0625000), wk =   0.0468750
        k(   32) = (  -0.0625000  -0.4375000   0.0625000), wk =   0.0234375
        k(   33) = (  -0.1875000   0.1875000   0.1875000), wk =   0.0078125
        k(   34) = (  -0.3125000   0.3125000   0.0625000), wk =   0.0234375
        k(   35) = (  -0.4375000   0.4375000  -0.0625000), wk =   0.0234375
        k(   36) = (   0.4375000  -0.4375000   0.8125000), wk =   0.0234375
        k(   37) = (   0.3125000  -0.3125000   0.6875000), wk =   0.0234375
        k(   38) = (   0.1875000  -0.1875000   0.5625000), wk =   0.0234375
        k(   39) = (  -0.1875000   0.4375000   0.1875000), wk =   0.0234375
        k(   40) = (  -0.3125000   0.5625000   0.0625000), wk =   0.0468750
        k(   41) = (   0.5625000  -0.3125000   0.9375000), wk =   0.0468750
        k(   42) = (   0.4375000  -0.1875000   0.8125000), wk =   0.0468750
        k(   43) = (   0.3125000  -0.0625000   0.6875000), wk =   0.0468750
        k(   44) = (  -0.1875000   0.6875000   0.1875000), wk =   0.0234375
        k(   45) = (   0.6875000  -0.1875000   1.0625000), wk =   0.0468750
        k(   46) = (   0.5625000  -0.0625000   0.9375000), wk =   0.0468750
        k(   47) = (   0.4375000   0.0625000   0.8125000), wk =   0.0468750
        k(   48) = (  -0.1875000  -1.0625000   0.1875000), wk =   0.0234375
        k(   49) = (  -0.3125000  -0.9375000   0.0625000), wk =   0.0468750
        k(   50) = (  -0.1875000  -0.8125000   0.1875000), wk =   0.0234375
        k(   51) = (  -0.3125000   0.3125000   0.3125000), wk =   0.0078125
        k(   52) = (  -0.4375000   0.4375000   0.1875000), wk =   0.0234375
        k(   53) = (   0.4375000  -0.4375000   1.0625000), wk =   0.0234375
        k(   54) = (   0.3125000  -0.3125000   0.9375000), wk =   0.0234375
        k(   55) = (  -0.3125000   0.5625000   0.3125000), wk =   0.0234375
        k(   56) = (   0.5625000  -0.3125000   1.1875000), wk =   0.0468750
        k(   57) = (   0.4375000  -0.1875000   1.0625000), wk =   0.0468750
        k(   58) = (  -0.3125000  -1.1875000   0.3125000), wk =   0.0234375
        k(   59) = (  -0.4375000   0.4375000   0.4375000), wk =   0.0078125
        k(   60) = (   0.4375000  -0.4375000   1.3125000), wk =   0.0234375

     Dense  grid:    68681 G-vectors     FFT dimensions: (  60,  60,  60)

     Smooth grid:    24045 G-vectors     FFT dimensions: (  45,  45,  45)

     Estimated max dynamical RAM per process >      22.15MB

     Estimated total allocated dynamical RAM >      88.59MB

     Initial potential from superposition of free atoms

     starting charge   25.99991, renormalised to   28.00000
     Starting wfc are   18 randomized atomic wfcs

     total cpu time spent up to now is        1.7 secs

     per-process dynamical memory:    26.1 Mb

     Self-consistent Calculation

     iteration #  1     ecut=    50.00 Ry     beta=0.70
     Davidson diagonalization with overlap
     ethr =  1.00E-02,  avg # of iterations =  2.5

     total cpu time spent up to now is        5.0 secs

     total energy              =    -317.48241215 Ry
     Harris-Foulkes estimate   =    -319.55208588 Ry
     estimated scf accuracy    <       2.52146345 Ry

     iteration #  2     ecut=    50.00 Ry     beta=0.70
     Davidson diagonalization with overlap
     ethr =  9.01E-03,  avg # of iterations =  3.0

     total cpu time spent up to now is        8.6 secs

     total energy              =    -318.39329950 Ry
     Harris-Foulkes estimate   =    -318.71209526 Ry
     estimated scf accuracy    <       0.47429345 Ry

     iteration #  3     ecut=    50.00 Ry     beta=0.70
     Davidson diagonalization with overlap
     ethr =  1.69E-03,  avg # of iterations =  2.0

     total cpu time spent up to now is       11.9 secs

     total energy              =    -318.48860400 Ry
     Harris-Foulkes estimate   =    -318.49017184 Ry
     estimated scf accuracy    <       0.00287649 Ry

     iteration #  4     ecut=    50.00 Ry     beta=0.70
     Davidson diagonalization with overlap
     ethr =  1.03E-05,  avg # of iterations =  3.0

     total cpu time spent up to now is       15.3 secs

     total energy              =    -318.48948659 Ry
     Harris-Foulkes estimate   =    -318.48960333 Ry
     estimated scf accuracy    <       0.00017276 Ry

     iteration #  5     ecut=    50.00 Ry     beta=0.70
     Davidson diagonalization with overlap
     ethr =  6.17E-07,  avg # of iterations =  3.0

     total cpu time spent up to now is       18.8 secs

     total energy              =    -318.48953984 Ry
     Harris-Foulkes estimate   =    -318.48954060 Ry
     estimated scf accuracy    <       0.00000154 Ry

     iteration #  6     ecut=    50.00 Ry     beta=0.70
     Davidson diagonalization with overlap
     ethr =  5.50E-09,  avg # of iterations =  4.0

     total cpu time spent up to now is       22.5 secs

     total energy              =    -318.48954060 Ry
     Harris-Foulkes estimate   =    -318.48954064 Ry
     estimated scf accuracy    <       0.00000006 Ry

     iteration #  7     ecut=    50.00 Ry     beta=0.70
     Davidson diagonalization with overlap
     ethr =  2.30E-10,  avg # of iterations =  3.1

     total cpu time spent up to now is       26.0 secs

     End of self-consistent calculation

          k =-0.0625 0.0625 0.0625 (  3026 PWs)   bands (ev):

   -14.8213 -14.8213 -14.8173 -14.7685 -14.7685 -14.5416 -14.5416 -14.5317
   -14.5214 -14.5214  -3.2625   5.0762   6.7349   6.7349

          k =-0.1875 0.1875-0.0625 (  3021 PWs)   bands (ev):

   -14.8325 -14.8276 -14.8141 -14.7583 -14.7519 -14.5632 -14.5545 -14.5300
   -14.5157 -14.5042  -3.0812   3.9591   6.0746   6.6004

          k =-0.3125 0.3125-0.1875 (  3002 PWs)   bands (ev):

   -14.8427 -14.8398 -14.8033 -14.7414 -14.7322 -14.5804 -14.5694 -14.5444
   -14.4995 -14.4925  -2.6508   2.4407   5.5882   6.1890

          k =-0.4375 0.4375-0.3125 (  3012 PWs)   bands (ev):

   -14.8481 -14.8474 -14.7935 -14.7290 -14.7218 -14.5877 -14.5792 -14.5590
   -14.4894 -14.4880  -2.0848   1.1757   5.3441   5.8391

          k = 0.4375-0.4375 0.5625 (  3017 PWs)   bands (ev):

   -14.8510 -14.8474 -14.7910 -14.7231 -14.7224 -14.5869 -14.5847 -14.5620
   -14.4890 -14.4852  -1.8354   0.7450   5.3417   5.6702

          k = 0.3125-0.3125 0.4375 (  3006 PWs)   bands (ev):

   -14.8485 -14.8428 -14.7976 -14.7320 -14.7238 -14.5893 -14.5751 -14.5525
   -14.4943 -14.4875  -2.2715   1.5406   5.5660   5.7194

          k = 0.1875-0.1875 0.3125 (  3005 PWs)   bands (ev):

   -14.8400 -14.8347 -14.8086 -14.7473 -14.7367 -14.5801 -14.5608 -14.5384
   -14.5046 -14.4962  -2.8179   2.9414   5.9754   5.9839

          k = 0.0625-0.0625 0.1875 (  3019 PWs)   bands (ev):

   -14.8267 -14.8238 -14.8178 -14.7644 -14.7569 -14.5611 -14.5423 -14.5287
   -14.5204 -14.5105  -3.1711   4.4508   6.4006   6.4297

          k =-0.0625 0.3125 0.0625 (  2995 PWs)   bands (ev):

   -14.8324 -14.8291 -14.8188 -14.7560 -14.7369 -14.5860 -14.5479 -14.5220
   -14.5147 -14.5039  -2.9892   3.6718   5.9411   5.9579

          k =-0.1875 0.4375-0.0625 (  2998 PWs)   bands (ev):

   -14.8446 -14.8397 -14.8070 -14.7410 -14.7147 -14.6097 -14.5633 -14.5324
   -14.5010 -14.4913  -2.6366   2.5964   5.1902   5.7226

          k =-0.3125 0.5625-0.1875 (  3017 PWs)   bands (ev):

   -14.8584 -14.8483 -14.7864 -14.7242 -14.7017 -14.6204 -14.5810 -14.5570
   -14.4887 -14.4775  -2.0887   1.3917   4.6885   5.4311

          k = 0.5625-0.3125 0.6875 (  3028 PWs)   bands (ev):

   -14.8645 -14.8525 -14.7719 -14.7115 -14.7048 -14.6120 -14.5975 -14.5742
   -14.4828 -14.4712  -1.6451   0.6537   4.4305   5.3664

          k = 0.4375-0.1875 0.5625 (  3021 PWs)   bands (ev):

   -14.8611 -14.8525 -14.7749 -14.7220 -14.7034 -14.6112 -14.5852 -14.5749
   -14.4825 -14.4755  -1.9056   1.0670   4.4370   5.5675

          k = 0.3125-0.0625 0.4375 (  3015 PWs)   bands (ev):

   -14.8496 -14.8471 -14.7932 -14.7373 -14.7146 -14.6037 -14.5715 -14.5505
   -14.4925 -14.4858  -2.4749   2.1782   4.7911   5.9443

          k = 0.1875 0.0625 0.3125 (  3007 PWs)   bands (ev):

   -14.8385 -14.8330 -14.8110 -14.7514 -14.7362 -14.5833 -14.5569 -14.5308
   -14.5101 -14.4970  -2.9023   3.2991   5.6251   6.2287

          k =-0.0625 0.5625 0.0625 (  3020 PWs)   bands (ev):

   -14.8465 -14.8442 -14.8106 -14.7269 -14.6863 -14.6450 -14.5753 -14.5232
   -14.4955 -14.4917  -2.3614   2.0660   5.0753   5.1614

          k =-0.1875 0.6875-0.0625 (  3018 PWs)   bands (ev):

   -14.8582 -14.8536 -14.7881 -14.7074 -14.6690 -14.6628 -14.5950 -14.5478
   -14.4829 -14.4775  -1.8594   1.1796   4.5250   4.9062

          k = 0.6875-0.1875 0.8125 (  3031 PWs)   bands (ev):

   -14.8719 -14.8581 -14.7598 -14.6886 -14.6723 -14.6577 -14.6168 -14.5776
   -14.4765 -14.4627  -1.3013   0.4009   3.9624   4.8760

          k = 0.5625-0.0625 0.6875 (  3033 PWs)   bands (ev):

   -14.8742 -14.8591 -14.7518 -14.6932 -14.6762 -14.6418 -14.6240 -14.5866
   -14.4749 -14.4606  -1.3646   0.4815   3.7559   5.1224

          k = 0.4375 0.0625 0.5625 (  3028 PWs)   bands (ev):

   -14.8637 -14.8554 -14.7686 -14.7215 -14.6943 -14.6215 -14.5866 -14.5804
   -14.4790 -14.4731  -1.9324   1.2230   4.1251   5.5447

          k = 0.3125 0.1875 0.4375 (  3009 PWs)   bands (ev):

   -14.8498 -14.8437 -14.7959 -14.7354 -14.7192 -14.5975 -14.5720 -14.5504
   -14.4945 -14.4861  -2.4054   1.9125   5.1416   5.8529

          k =-0.0625 0.8125 0.0625 (  3021 PWs)   bands (ev):

   -14.8583 -14.8561 -14.7815 -14.7059 -14.6853 -14.6293 -14.6160 -14.5533
   -14.4787 -14.4764  -1.4051   0.5387   4.5564   4.6780

          k = 0.8125-0.0625 0.9375 (  3019 PWs)   bands (ev):

   -14.8660 -14.8609 -14.7516 -14.7233 -14.6629 -14.6391 -14.6114 -14.5837
   -14.4727 -14.4677  -0.8005  -0.1634   4.2240   4.5338

          k = 0.6875 0.0625 0.8125 (  3027 PWs)   bands (ev):

   -14.8749 -14.8605 -14.7475 -14.6857 -14.6683 -14.6466 -14.6369 -14.5879
   -14.4731 -14.4590  -0.9319  -0.0005   3.7934   4.7664

          k = 0.5625 0.1875 0.6875 (  3026 PWs)   bands (ev):

   -14.8708 -14.8564 -14.7596 -14.7006 -14.6902 -14.6285 -14.6118 -14.5816
   -14.4780 -14.4643  -1.4651   0.5293   4.0046   5.2040

          k = 0.4375 0.3125 0.5625 (  3019 PWs)   bands (ev):

   -14.8561 -14.8491 -14.7841 -14.7227 -14.7148 -14.5973 -14.5849 -14.5669
   -14.4870 -14.4801  -1.8655   0.8715   4.9213   5.6066

          k =-0.0625-0.9375 0.0625 (  3011 PWs)   bands (ev):

   -14.8607 -14.8586 -14.7600 -14.7339 -14.6621 -14.6384 -14.6015 -14.5754
   -14.4747 -14.4727  -0.8179  -0.1651   4.4503   4.5787

          k =-0.1875-0.8125-0.0625 (  3021 PWs)   bands (ev):

   -14.8633 -14.8582 -14.7716 -14.6972 -14.6859 -14.6367 -14.6162 -14.5639
   -14.4764 -14.4712  -1.3596   0.4912   4.3254   4.6589

          k =-0.3125-0.6875-0.1875 (  3022 PWs)   bands (ev):

   -14.8660 -14.8535 -14.7739 -14.7080 -14.6828 -14.6438 -14.5969 -14.5659
   -14.4823 -14.4692  -1.7128   0.8855   4.2764   5.0974

          k =-0.0625-0.6875 0.0625 (  3026 PWs)   bands (ev):

   -14.8535 -14.8511 -14.7987 -14.7070 -14.6760 -14.6579 -14.5944 -14.5356
   -14.4859 -14.4832  -1.9220   1.2863   4.7664   4.8741

          k =-0.1875-0.5625-0.0625 (  3013 PWs)   bands (ev):

   -14.8517 -14.8470 -14.7999 -14.7261 -14.6901 -14.6387 -14.5768 -14.5374
   -14.4915 -14.4848  -2.2873   1.8852   4.8168   5.2671

          k =-0.0625-0.4375 0.0625 (  3004 PWs)   bands (ev):

   -14.8390 -14.8362 -14.8173 -14.7434 -14.7132 -14.6144 -14.5594 -14.5183
   -14.5058 -14.4992  -2.7184   2.8662   5.4734   5.5294

          k =-0.1875 0.1875 0.1875 (  3005 PWs)   bands (ev):

   -14.8328 -14.8328 -14.8115 -14.7508 -14.7508 -14.5612 -14.5612 -14.5384
   -14.5048 -14.5048  -2.9930   3.5278   6.3490   6.3490

          k =-0.3125 0.3125 0.0625 (  3008 PWs)   bands (ev):

   -14.8438 -14.8399 -14.8019 -14.7450 -14.7296 -14.5847 -14.5689 -14.5402
   -14.5022 -14.4908  -2.7299   2.7629   5.1972   6.3166

          k =-0.4375 0.4375-0.0625 (  3025 PWs)   bands (ev):

   -14.8563 -14.8519 -14.7798 -14.7321 -14.7079 -14.6050 -14.5792 -14.5686
   -14.4825 -14.4822  -2.2378   1.7061   4.4182   5.9091

          k = 0.4375-0.4375 0.8125 (  3027 PWs)   bands (ev):

   -14.8662 -14.8545 -14.7665 -14.7135 -14.6998 -14.6095 -14.6027 -14.5802
   -14.4802 -14.4699  -1.6883   0.7701   4.1920   5.4987

          k = 0.3125-0.3125 0.6875 (  3029 PWs)   bands (ev):

   -14.8660 -14.8518 -14.7741 -14.7090 -14.6965 -14.6271 -14.5971 -14.5680
   -14.4842 -14.4693  -1.6741   0.7477   4.3648   5.2681

          k = 0.1875-0.1875 0.5625 (  3015 PWs)   bands (ev):

   -14.8558 -14.8454 -14.7957 -14.7254 -14.6956 -14.6314 -14.5780 -14.5434
   -14.4931 -14.4801  -2.2195   1.6924   4.8417   5.2779

          k =-0.1875 0.4375 0.1875 (  3004 PWs)   bands (ev):

   -14.8480 -14.8391 -14.8039 -14.7388 -14.7176 -14.6045 -14.5659 -14.5384
   -14.5004 -14.4883  -2.5585   2.3195   5.3818   5.6096

          k =-0.3125 0.5625 0.0625 (  3019 PWs)   bands (ev):

   -14.8571 -14.8524 -14.7840 -14.7248 -14.6943 -14.6291 -14.5803 -14.5586
   -14.4839 -14.4795  -2.1421   1.5826   4.4563   5.4338

          k = 0.5625-0.3125 0.9375 (  3034 PWs)   bands (ev):

   -14.8696 -14.8596 -14.7572 -14.7056 -14.6764 -14.6450 -14.6048 -14.5844
   -14.4747 -14.4659  -1.5690   0.7437   3.9375   5.0560

          k = 0.4375-0.1875 0.8125 (  3030 PWs)   bands (ev):

   -14.8729 -14.8606 -14.7509 -14.6926 -14.6729 -14.6513 -14.6177 -14.5874
   -14.4738 -14.4615  -1.2752   0.3607   3.8990   4.8477

          k = 0.3125-0.0625 0.6875 (  3027 PWs)   bands (ev):

   -14.8638 -14.8577 -14.7720 -14.7076 -14.6719 -14.6559 -14.5973 -14.5673
   -14.4775 -14.4719  -1.7386   0.9875   4.2138   4.9643

          k =-0.1875 0.6875 0.1875 (  3024 PWs)   bands (ev):

   -14.8631 -14.8515 -14.7835 -14.7075 -14.6732 -14.6574 -14.5956 -14.5537
   -14.4851 -14.4723  -1.8079   1.0679   4.4086   5.0143

          k = 0.6875-0.1875 1.0625 (  3035 PWs)   bands (ev):

   -14.8686 -14.8625 -14.7562 -14.6873 -14.6832 -14.6476 -14.6181 -14.5807
   -14.4720 -14.4661  -1.2750   0.3994   4.0716   4.6029

          k = 0.5625-0.0625 0.9375 (  3038 PWs)   bands (ev):

   -14.8736 -14.8685 -14.7259 -14.6935 -14.6674 -14.6443 -14.6352 -14.6077
   -14.4654 -14.4602  -0.7562  -0.1613   3.9046   4.2917

          k = 0.4375 0.0625 0.8125 (  3033 PWs)   bands (ev):

   -14.8728 -14.8644 -14.7425 -14.6872 -14.6705 -14.6555 -14.6237 -14.5941
   -14.4696 -14.4615  -1.1637   0.2737   3.8685   4.6055

          k =-0.1875-1.0625 0.1875 (  3027 PWs)   bands (ev):

   -14.8715 -14.8588 -14.7527 -14.7068 -14.6646 -14.6383 -14.6275 -14.5829
   -14.4749 -14.4623  -0.8470  -0.1052   3.9558   4.7400

          k =-0.3125-0.9375 0.0625 (  3029 PWs)   bands (ev):

   -14.8708 -14.8651 -14.7381 -14.7071 -14.6648 -14.6405 -14.6259 -14.5969
   -14.4684 -14.4629  -0.7750  -0.1617   4.0191   4.3959

          k =-0.1875-0.8125 0.1875 (  3029 PWs)   bands (ev):

   -14.8686 -14.8562 -14.7681 -14.6866 -14.6865 -14.6467 -14.6162 -14.5683
   -14.4783 -14.4661  -1.3362   0.4549   4.1086   4.8326

          k =-0.3125 0.3125 0.3125 (  3007 PWs)   bands (ev):

   -14.8418 -14.8418 -14.8034 -14.7343 -14.7343 -14.5756 -14.5756 -14.5487
   -14.4948 -14.4948  -2.4958   1.9945   5.9725   5.9725

          k =-0.4375 0.4375 0.1875 (  3026 PWs)   bands (ev):

   -14.8530 -14.8503 -14.7856 -14.7311 -14.7143 -14.5975 -14.5779 -14.5655
   -14.4855 -14.4848  -2.1839   1.4802   4.7838   5.8871

          k = 0.4375-0.4375 1.0625 (  3028 PWs)   bands (ev):

   -14.8702 -14.8567 -14.7589 -14.7101 -14.6881 -14.6214 -14.6105 -14.5840
   -14.4771 -14.4658  -1.6683   0.8487   3.8813   5.4564

          k = 0.3125-0.3125 0.9375 (  3030 PWs)   bands (ev):

   -14.8761 -14.8586 -14.7517 -14.6731 -14.6716 -14.6588 -14.6331 -14.5850
   -14.4752 -14.4581  -1.1440   0.2265   3.7025   5.0453

          k =-0.3125 0.5625 0.3125 (  3019 PWs)   bands (ev):

   -14.8575 -14.8469 -14.7872 -14.7234 -14.7107 -14.6077 -14.5826 -14.5588
   -14.4902 -14.4785  -1.9904   1.1205   4.9337   5.4741

          k = 0.5625-0.3125 1.1875 (  3024 PWs)   bands (ev):

   -14.8680 -14.8562 -14.7635 -14.7080 -14.6891 -14.6310 -14.6010 -14.5796
   -14.4785 -14.4672  -1.5903   0.6894   4.1339   5.1647

          k = 0.4375-0.1875 1.0625 (  3035 PWs)   bands (ev):

   -14.8754 -14.8633 -14.7408 -14.6797 -14.6679 -14.6574 -14.6333 -14.5948
   -14.4704 -14.4588  -1.0430   0.1329   3.7660   4.6811

          k =-0.3125-1.1875 0.3125 (  3030 PWs)   bands (ev):

   -14.8726 -14.8561 -14.7609 -14.6907 -14.6827 -14.6451 -14.6155 -14.5780
   -14.4784 -14.4621  -1.3636   0.4340   3.9353   5.1213

          k =-0.4375 0.4375 0.4375 (  3007 PWs)   bands (ev):

   -14.8460 -14.8460 -14.7970 -14.7259 -14.7259 -14.5822 -14.5822 -14.5563
   -14.4902 -14.4902  -1.9594   0.9094   5.7640   5.7640

          k = 0.4375-0.4375 1.3125 (  3030 PWs)   bands (ev):

   -14.8592 -14.8507 -14.7789 -14.7182 -14.7136 -14.5952 -14.5936 -14.5723
   -14.4850 -14.4772  -1.7411   0.7072   4.7180   5.5751

     highest occupied level (ev):     6.7349

!    total energy              =    -318.48954063 Ry
     Harris-Foulkes estimate   =    -318.48954063 Ry
     estimated scf accuracy    <          2.5E-09 Ry

     The total energy is the sum of the following terms:

     one-electron contribution =    -163.84316978 Ry
     hartree contribution      =      98.22610984 Ry
     xc contribution           =     -85.94561640 Ry
     ewald contribution        =    -166.92686429 Ry

     convergence has been achieved in   7 iterations

     Writing output data file sn.alpha.12.65.save

     init_run     :      1.55s CPU      1.60s WALL (       1 calls)
     electrons    :     23.76s CPU     24.39s WALL (       1 calls)

     Called by init_run:
     wfcinit      :      1.06s CPU      1.09s WALL (       1 calls)
     potinit      :      0.06s CPU      0.06s WALL (       1 calls)

     Called by electrons:
     c_bands      :     19.29s CPU     19.68s WALL (       7 calls)
     sum_band     :      3.62s CPU      3.77s WALL (       7 calls)
     v_of_rho     :      0.36s CPU      0.37s WALL (       8 calls)
     newd         :      0.53s CPU      0.60s WALL (       8 calls)
     mix_rho      :      0.03s CPU      0.03s WALL (       7 calls)

     Called by c_bands:
     init_us_2    :      0.38s CPU      0.39s WALL (     900 calls)
     cegterg      :     18.58s CPU     18.96s WALL (     420 calls)

     Called by sum_band:
     sum_band:bec :      0.00s CPU      0.00s WALL (     420 calls)
     addusdens    :      0.57s CPU      0.66s WALL (       7 calls)

     Called by *egterg:
     h_psi        :     17.08s CPU     17.45s WALL (    1722 calls)
     s_psi        :      0.22s CPU      0.22s WALL (    1722 calls)
     g_psi        :      0.08s CPU      0.08s WALL (    1242 calls)
     cdiaghg      :      0.72s CPU      0.72s WALL (    1662 calls)

     Called by h_psi:
     h_psi:pot    :     16.99s CPU     17.35s WALL (    1722 calls)
     h_psi:calbec :      0.50s CPU      0.51s WALL (    1722 calls)
     vloc_psi     :     16.22s CPU     16.57s WALL (    1722 calls)
     add_vuspsi   :      0.26s CPU      0.26s WALL (    1722 calls)

     General routines
     calbec       :      0.62s CPU      0.64s WALL (    2142 calls)
     fft          :      0.19s CPU      0.19s WALL (     124 calls)
     ffts         :      0.01s CPU      0.01s WALL (      15 calls)
     fftw         :     15.90s CPU     16.28s WALL (   45610 calls)
     interpolate  :      0.04s CPU      0.04s WALL (      15 calls)
     davcio       :      0.00s CPU      0.00s WALL (      60 calls)

     Parallel routines
     fft_scatter  :      2.08s CPU      2.05s WALL (   45749 calls)

     PWSCF        :    25.47s CPU        27.19s WALL


   This run was terminated on:  16:14:54  11Nov2017            

=------------------------------------------------------------------------------=
   JOB DONE.
=------------------------------------------------------------------------------=
