
     Program PWSCF v.6.1 (svn rev. 13369) starts on 11Nov2017 at 16:14:55 

     This program is part of the open-source Quantum ESPRESSO suite
     for quantum simulation of materials; please cite
         "P. Giannozzi et al., J. Phys.:Condens. Matter 21 395502 (2009);
          URL http://www.quantum-espresso.org", 
     in publications or presentations arising from this work. More details at
     http://www.quantum-espresso.org/quote

     Parallel version (MPI), running on     4 processors
     R & G space division:  proc/nbgrp/npool/nimage =       4
     Waiting for input...
     Reading input from standard input
     Message from routine read_cards :
     DEPRECATED: no units specified in ATOMIC_POSITIONS card
     Message from routine read_cards :
     ATOMIC_POSITIONS: units set to alat

     Current dimensions of program PWSCF are:
     Max number of different atomic species (ntypx) = 10
     Max number of k-points (npk) =  40000
     Max angular momentum in pseudopotentials (lmaxx) =  3

     Subspace diagonalization in iterative solution of the eigenvalue problem:
     a serial algorithm will be used


     Parallelization info
     --------------------
     sticks:   dense  smooth     PW     G-vecs:    dense   smooth      PW
     Min         555     277     84                17217     6076    1003
     Max         556     278     85                17220     6078    1005
     Sum        2221    1111    337                68873    24309    4015



     bravais-lattice index     =            2
     lattice parameter (alat)  =      12.6700  a.u.
     unit-cell volume          =     508.4753 (a.u.)^3
     number of atoms/cell      =            2
     number of atomic types    =            1
     number of electrons       =        28.00
     number of Kohn-Sham states=           14
     kinetic-energy cutoff     =      50.0000  Ry
     charge density cutoff     =     400.0000  Ry
     convergence threshold     =      1.0E-08
     mixing beta               =       0.7000
     number of iterations used =            8  plain     mixing
     Exchange-correlation      =  SLA  PW   PBX  PBC ( 1  4  3  4 0 0)

     celldm(1)=  12.670000  celldm(2)=   0.000000  celldm(3)=   0.000000
     celldm(4)=   0.000000  celldm(5)=   0.000000  celldm(6)=   0.000000

     crystal axes: (cart. coord. in units of alat)
               a(1) = (  -0.500000   0.000000   0.500000 )  
               a(2) = (   0.000000   0.500000   0.500000 )  
               a(3) = (  -0.500000   0.500000   0.000000 )  

     reciprocal axes: (cart. coord. in units 2 pi/alat)
               b(1) = ( -1.000000 -1.000000  1.000000 )  
               b(2) = (  1.000000  1.000000  1.000000 )  
               b(3) = ( -1.000000  1.000000 -1.000000 )  


     PseudoPot. # 1 for Sn read from file:
     /home/s1333534/quantum_espresso/qe-6.1/pseudo/sn_pbe_v1.4.uspp.F.UPF
     MD5 check sum: 469debedee59599fedebd795477fea03
     Pseudo is Ultrasoft + core correction, Zval = 14.0
     Generated by new atomic code, or converted to UPF format
     Using radial grid of  891 points,  6 beta functions with: 
                l(1) =   0
                l(2) =   0
                l(3) =   1
                l(4) =   1
                l(5) =   2
                l(6) =   2
     Q(r) pseudized with  8 coefficients,  rinner =    1.350   1.350   1.350
                                                       1.350   1.350

     atomic species   valence    mass     pseudopotential
        Sn            14.00   118.71000     Sn( 1.00)

     48 Sym. Ops., with inversion, found (24 have fractional translation)



   Cartesian axes

     site n.     atom                  positions (alat units)
         1           Sn  tau(   1) = (   0.0000000   0.0000000   0.0000000  )
         2           Sn  tau(   2) = (   0.2500000   0.2500000   0.2500000  )

     number of k points=    60
                       cart. coord. in units 2pi/alat
        k(    1) = (  -0.0625000   0.0625000   0.0625000), wk =   0.0078125
        k(    2) = (  -0.1875000   0.1875000  -0.0625000), wk =   0.0234375
        k(    3) = (  -0.3125000   0.3125000  -0.1875000), wk =   0.0234375
        k(    4) = (  -0.4375000   0.4375000  -0.3125000), wk =   0.0234375
        k(    5) = (   0.4375000  -0.4375000   0.5625000), wk =   0.0234375
        k(    6) = (   0.3125000  -0.3125000   0.4375000), wk =   0.0234375
        k(    7) = (   0.1875000  -0.1875000   0.3125000), wk =   0.0234375
        k(    8) = (   0.0625000  -0.0625000   0.1875000), wk =   0.0234375
        k(    9) = (  -0.0625000   0.3125000   0.0625000), wk =   0.0234375
        k(   10) = (  -0.1875000   0.4375000  -0.0625000), wk =   0.0468750
        k(   11) = (  -0.3125000   0.5625000  -0.1875000), wk =   0.0468750
        k(   12) = (   0.5625000  -0.3125000   0.6875000), wk =   0.0468750
        k(   13) = (   0.4375000  -0.1875000   0.5625000), wk =   0.0468750
        k(   14) = (   0.3125000  -0.0625000   0.4375000), wk =   0.0468750
        k(   15) = (   0.1875000   0.0625000   0.3125000), wk =   0.0468750
        k(   16) = (  -0.0625000   0.5625000   0.0625000), wk =   0.0234375
        k(   17) = (  -0.1875000   0.6875000  -0.0625000), wk =   0.0468750
        k(   18) = (   0.6875000  -0.1875000   0.8125000), wk =   0.0468750
        k(   19) = (   0.5625000  -0.0625000   0.6875000), wk =   0.0468750
        k(   20) = (   0.4375000   0.0625000   0.5625000), wk =   0.0468750
        k(   21) = (   0.3125000   0.1875000   0.4375000), wk =   0.0468750
        k(   22) = (  -0.0625000   0.8125000   0.0625000), wk =   0.0234375
        k(   23) = (   0.8125000  -0.0625000   0.9375000), wk =   0.0468750
        k(   24) = (   0.6875000   0.0625000   0.8125000), wk =   0.0468750
        k(   25) = (   0.5625000   0.1875000   0.6875000), wk =   0.0468750
        k(   26) = (   0.4375000   0.3125000   0.5625000), wk =   0.0468750
        k(   27) = (  -0.0625000  -0.9375000   0.0625000), wk =   0.0234375
        k(   28) = (  -0.1875000  -0.8125000  -0.0625000), wk =   0.0468750
        k(   29) = (  -0.3125000  -0.6875000  -0.1875000), wk =   0.0468750
        k(   30) = (  -0.0625000  -0.6875000   0.0625000), wk =   0.0234375
        k(   31) = (  -0.1875000  -0.5625000  -0.0625000), wk =   0.0468750
        k(   32) = (  -0.0625000  -0.4375000   0.0625000), wk =   0.0234375
        k(   33) = (  -0.1875000   0.1875000   0.1875000), wk =   0.0078125
        k(   34) = (  -0.3125000   0.3125000   0.0625000), wk =   0.0234375
        k(   35) = (  -0.4375000   0.4375000  -0.0625000), wk =   0.0234375
        k(   36) = (   0.4375000  -0.4375000   0.8125000), wk =   0.0234375
        k(   37) = (   0.3125000  -0.3125000   0.6875000), wk =   0.0234375
        k(   38) = (   0.1875000  -0.1875000   0.5625000), wk =   0.0234375
        k(   39) = (  -0.1875000   0.4375000   0.1875000), wk =   0.0234375
        k(   40) = (  -0.3125000   0.5625000   0.0625000), wk =   0.0468750
        k(   41) = (   0.5625000  -0.3125000   0.9375000), wk =   0.0468750
        k(   42) = (   0.4375000  -0.1875000   0.8125000), wk =   0.0468750
        k(   43) = (   0.3125000  -0.0625000   0.6875000), wk =   0.0468750
        k(   44) = (  -0.1875000   0.6875000   0.1875000), wk =   0.0234375
        k(   45) = (   0.6875000  -0.1875000   1.0625000), wk =   0.0468750
        k(   46) = (   0.5625000  -0.0625000   0.9375000), wk =   0.0468750
        k(   47) = (   0.4375000   0.0625000   0.8125000), wk =   0.0468750
        k(   48) = (  -0.1875000  -1.0625000   0.1875000), wk =   0.0234375
        k(   49) = (  -0.3125000  -0.9375000   0.0625000), wk =   0.0468750
        k(   50) = (  -0.1875000  -0.8125000   0.1875000), wk =   0.0234375
        k(   51) = (  -0.3125000   0.3125000   0.3125000), wk =   0.0078125
        k(   52) = (  -0.4375000   0.4375000   0.1875000), wk =   0.0234375
        k(   53) = (   0.4375000  -0.4375000   1.0625000), wk =   0.0234375
        k(   54) = (   0.3125000  -0.3125000   0.9375000), wk =   0.0234375
        k(   55) = (  -0.3125000   0.5625000   0.3125000), wk =   0.0234375
        k(   56) = (   0.5625000  -0.3125000   1.1875000), wk =   0.0468750
        k(   57) = (   0.4375000  -0.1875000   1.0625000), wk =   0.0468750
        k(   58) = (  -0.3125000  -1.1875000   0.3125000), wk =   0.0234375
        k(   59) = (  -0.4375000   0.4375000   0.4375000), wk =   0.0078125
        k(   60) = (   0.4375000  -0.4375000   1.3125000), wk =   0.0234375

     Dense  grid:    68873 G-vectors     FFT dimensions: (  60,  60,  60)

     Smooth grid:    24309 G-vectors     FFT dimensions: (  45,  45,  45)

     Estimated max dynamical RAM per process >      22.23MB

     Estimated total allocated dynamical RAM >      88.91MB

     Initial potential from superposition of free atoms

     starting charge   25.99991, renormalised to   28.00000
     Starting wfc are   18 randomized atomic wfcs

     total cpu time spent up to now is        1.7 secs

     per-process dynamical memory:    26.2 Mb

     Self-consistent Calculation

     iteration #  1     ecut=    50.00 Ry     beta=0.70
     Davidson diagonalization with overlap
     ethr =  1.00E-02,  avg # of iterations =  2.5

     total cpu time spent up to now is        5.1 secs

     total energy              =    -317.48175117 Ry
     Harris-Foulkes estimate   =    -319.55284163 Ry
     estimated scf accuracy    <       2.52314026 Ry

     iteration #  2     ecut=    50.00 Ry     beta=0.70
     Davidson diagonalization with overlap
     ethr =  9.01E-03,  avg # of iterations =  3.0

     total cpu time spent up to now is        8.9 secs

     total energy              =    -318.39312713 Ry
     Harris-Foulkes estimate   =    -318.71201236 Ry
     estimated scf accuracy    <       0.47435820 Ry

     iteration #  3     ecut=    50.00 Ry     beta=0.70
     Davidson diagonalization with overlap
     ethr =  1.69E-03,  avg # of iterations =  2.0

     total cpu time spent up to now is       12.2 secs

     total energy              =    -318.48847780 Ry
     Harris-Foulkes estimate   =    -318.49004420 Ry
     estimated scf accuracy    <       0.00287564 Ry

     iteration #  4     ecut=    50.00 Ry     beta=0.70
     Davidson diagonalization with overlap
     ethr =  1.03E-05,  avg # of iterations =  3.0

     total cpu time spent up to now is       15.8 secs

     total energy              =    -318.48935871 Ry
     Harris-Foulkes estimate   =    -318.48947507 Ry
     estimated scf accuracy    <       0.00017219 Ry

     iteration #  5     ecut=    50.00 Ry     beta=0.70
     Davidson diagonalization with overlap
     ethr =  6.15E-07,  avg # of iterations =  3.0

     total cpu time spent up to now is       19.3 secs

     total energy              =    -318.48941213 Ry
     Harris-Foulkes estimate   =    -318.48941289 Ry
     estimated scf accuracy    <       0.00000154 Ry

     iteration #  6     ecut=    50.00 Ry     beta=0.70
     Davidson diagonalization with overlap
     ethr =  5.52E-09,  avg # of iterations =  4.0

     total cpu time spent up to now is       23.2 secs

     total energy              =    -318.48941292 Ry
     Harris-Foulkes estimate   =    -318.48941296 Ry
     estimated scf accuracy    <       0.00000007 Ry

     iteration #  7     ecut=    50.00 Ry     beta=0.70
     Davidson diagonalization with overlap
     ethr =  2.49E-10,  avg # of iterations =  3.2

     total cpu time spent up to now is       26.9 secs

     End of self-consistent calculation

          k =-0.0625 0.0625 0.0625 (  3047 PWs)   bands (ev):

   -14.8689 -14.8689 -14.8656 -14.8169 -14.8169 -14.5929 -14.5929 -14.5830
   -14.5729 -14.5729  -3.2889   4.9994   6.6812   6.6812

          k =-0.1875 0.1875-0.0625 (  3025 PWs)   bands (ev):

   -14.8798 -14.8750 -14.8616 -14.8065 -14.8003 -14.6140 -14.6054 -14.5814
   -14.5671 -14.5558  -3.1085   3.8950   6.0254   6.5474

          k =-0.3125 0.3125-0.1875 (  3016 PWs)   bands (ev):

   -14.8901 -14.8870 -14.8511 -14.7899 -14.7809 -14.6312 -14.6202 -14.5956
   -14.5511 -14.5446  -2.6805   2.3882   5.5407   6.1385

          k =-0.4375 0.4375-0.3125 (  3028 PWs)   bands (ev):

   -14.8953 -14.8946 -14.8415 -14.7778 -14.7709 -14.6386 -14.6300 -14.6099
   -14.5412 -14.5399  -2.1179   1.1316   5.2970   5.7906

          k = 0.4375-0.4375 0.5625 (  3033 PWs)   bands (ev):

   -14.8982 -14.8947 -14.8390 -14.7718 -14.7712 -14.6378 -14.6356 -14.6129
   -14.5408 -14.5372  -1.8704   0.7040   5.2941   5.6228

          k = 0.3125-0.3125 0.4375 (  3025 PWs)   bands (ev):

   -14.8957 -14.8902 -14.8457 -14.7807 -14.7727 -14.6402 -14.6261 -14.6034
   -14.5461 -14.5395  -2.3034   1.4940   5.5171   5.6719

          k = 0.1875-0.1875 0.3125 (  3024 PWs)   bands (ev):

   -14.8875 -14.8823 -14.8564 -14.7957 -14.7855 -14.6309 -14.6118 -14.5896
   -14.5563 -14.5481  -2.8466   2.8853   5.9249   5.9351

          k = 0.0625-0.0625 0.1875 (  3037 PWs)   bands (ev):

   -14.8742 -14.8713 -14.8654 -14.8130 -14.8054 -14.6122 -14.5937 -14.5800
   -14.5718 -14.5623  -3.1980   4.3816   6.3494   6.3776

          k =-0.0625 0.3125 0.0625 (  3012 PWs)   bands (ev):

   -14.8799 -14.8765 -14.8663 -14.8043 -14.7858 -14.6367 -14.5993 -14.5736
   -14.5660 -14.5558  -3.0170   3.6082   5.8924   5.9095

          k =-0.1875 0.4375-0.0625 (  3015 PWs)   bands (ev):

   -14.8920 -14.8873 -14.8548 -14.7895 -14.7637 -14.6600 -14.6144 -14.5839
   -14.5526 -14.5431  -2.6662   2.5401   5.1462   5.6749

          k =-0.3125 0.5625-0.1875 (  3029 PWs)   bands (ev):

   -14.9055 -14.8955 -14.8344 -14.7731 -14.7508 -14.6705 -14.6317 -14.6080
   -14.5406 -14.5295  -2.1215   1.3438   4.6459   5.3853

          k = 0.5625-0.3125 0.6875 (  3045 PWs)   bands (ev):

   -14.9116 -14.8999 -14.8202 -14.7604 -14.7538 -14.6623 -14.6481 -14.6252
   -14.5348 -14.5234  -1.6809   0.6110   4.3887   5.3211

          k = 0.4375-0.1875 0.5625 (  3034 PWs)   bands (ev):

   -14.9081 -14.8997 -14.8229 -14.7710 -14.7525 -14.6614 -14.6360 -14.6257
   -14.5345 -14.5276  -1.9395   1.0213   4.3958   5.5208

          k = 0.3125-0.0625 0.4375 (  3031 PWs)   bands (ev):

   -14.8968 -14.8944 -14.8412 -14.7860 -14.7635 -14.6542 -14.6226 -14.6016
   -14.5443 -14.5377  -2.5055   2.1250   4.7494   5.8951

          k = 0.1875 0.0625 0.3125 (  3026 PWs)   bands (ev):

   -14.8858 -14.8806 -14.8588 -14.8000 -14.7850 -14.6340 -14.6081 -14.5822
   -14.5617 -14.5490  -2.9306   3.2393   5.5787   6.1777

          k =-0.0625 0.5625 0.0625 (  3034 PWs)   bands (ev):

   -14.8939 -14.8915 -14.8582 -14.7757 -14.7357 -14.6948 -14.6262 -14.5748
   -14.5472 -14.5436  -2.3924   2.0115   5.0319   5.1175

          k =-0.1875 0.6875-0.0625 (  3035 PWs)   bands (ev):

   -14.9054 -14.9007 -14.8361 -14.7565 -14.7185 -14.7125 -14.6458 -14.5990
   -14.5349 -14.5295  -1.8931   1.1300   4.4848   4.8638

          k = 0.6875-0.1875 0.8125 (  3046 PWs)   bands (ev):

   -14.9188 -14.9051 -14.8080 -14.7379 -14.7218 -14.7074 -14.6673 -14.6286
   -14.5286 -14.5150  -1.3385   0.3562   3.9255   4.8338

          k = 0.5625-0.0625 0.6875 (  3047 PWs)   bands (ev):

   -14.9211 -14.9062 -14.8001 -14.7424 -14.7256 -14.6917 -14.6742 -14.6374
   -14.5270 -14.5130  -1.4016   0.4365   3.7204   5.0785

          k = 0.4375 0.0625 0.5625 (  3047 PWs)   bands (ev):

   -14.9109 -14.9026 -14.8169 -14.7704 -14.7436 -14.6717 -14.6374 -14.6312
   -14.5311 -14.5253  -1.9660   1.1746   4.0871   5.4982

          k = 0.3125 0.1875 0.4375 (  3024 PWs)   bands (ev):

   -14.8970 -14.8911 -14.8440 -14.7840 -14.7680 -14.6480 -14.6229 -14.6015
   -14.5463 -14.5380  -2.4364   1.8626   5.0963   5.8043

          k =-0.0625 0.8125 0.0625 (  3035 PWs)   bands (ev):

   -14.9053 -14.9033 -14.8296 -14.7550 -14.7347 -14.6795 -14.6662 -14.6045
   -14.5306 -14.5284  -1.4411   0.4924   4.5159   4.6367

          k = 0.8125-0.0625 0.9375 (  3036 PWs)   bands (ev):

   -14.9132 -14.9079 -14.8001 -14.7720 -14.7127 -14.6891 -14.6619 -14.6344
   -14.5249 -14.5199  -0.8399  -0.2060   4.1857   4.4935

          k = 0.6875 0.0625 0.8125 (  3044 PWs)   bands (ev):

   -14.9218 -14.9076 -14.7960 -14.7350 -14.7179 -14.6966 -14.6871 -14.6385
   -14.5253 -14.5114  -0.9712  -0.0436   3.7580   4.7247

          k = 0.5625 0.1875 0.6875 (  3037 PWs)   bands (ev):

   -14.9177 -14.9035 -14.8080 -14.7497 -14.7395 -14.6786 -14.6622 -14.6323
   -14.5299 -14.5166  -1.5018   0.4856   3.9665   5.1597

          k = 0.4375 0.3125 0.5625 (  3035 PWs)   bands (ev):

   -14.9034 -14.8963 -14.8321 -14.7715 -14.7639 -14.6480 -14.6357 -14.6177
   -14.5389 -14.5321  -1.9000   0.8287   4.8761   5.5597

          k =-0.0625-0.9375 0.0625 (  3027 PWs)   bands (ev):

   -14.9080 -14.9056 -14.8082 -14.7826 -14.7119 -14.6887 -14.6520 -14.6263
   -14.5269 -14.5247  -0.8570  -0.2077   4.4104   4.5379

          k =-0.1875-0.8125-0.0625 (  3039 PWs)   bands (ev):

   -14.9104 -14.9053 -14.8198 -14.7464 -14.7353 -14.6868 -14.6667 -14.6150
   -14.5284 -14.5234  -1.3960   0.4452   4.2865   4.6179

          k =-0.3125-0.6875-0.1875 (  3035 PWs)   bands (ev):

   -14.9130 -14.9007 -14.8220 -14.7570 -14.7321 -14.6936 -14.6476 -14.6168
   -14.5343 -14.5213  -1.7476   0.8391   4.2368   5.0538

          k =-0.0625-0.6875 0.0625 (  3042 PWs)   bands (ev):

   -14.9007 -14.8983 -14.8464 -14.7565 -14.7253 -14.7077 -14.6450 -14.5870
   -14.5378 -14.5353  -1.9552   1.2359   4.7247   4.8317

          k =-0.1875-0.5625-0.0625 (  3029 PWs)   bands (ev):

   -14.8989 -14.8943 -14.8477 -14.7750 -14.7394 -14.6887 -14.6278 -14.5887
   -14.5433 -14.5368  -2.3188   1.8323   4.7749   5.2224

          k =-0.0625-0.4375 0.0625 (  3020 PWs)   bands (ev):

   -14.8865 -14.8837 -14.8649 -14.7919 -14.7623 -14.6645 -14.6106 -14.5700
   -14.5574 -14.5511  -2.7476   2.8073   5.4276   5.4835

          k =-0.1875 0.1875 0.1875 (  3017 PWs)   bands (ev):

   -14.8804 -14.8804 -14.8592 -14.7992 -14.7992 -14.6122 -14.6122 -14.5894
   -14.5564 -14.5564  -3.0208   3.4680   6.2978   6.2978

          k =-0.3125 0.3125 0.0625 (  3018 PWs)   bands (ev):

   -14.8911 -14.8872 -14.8496 -14.7934 -14.7783 -14.6353 -14.6198 -14.5915
   -14.5538 -14.5427  -2.7591   2.7068   5.1532   6.2653

          k =-0.4375 0.4375-0.0625 (  3043 PWs)   bands (ev):

   -14.9034 -14.8993 -14.8280 -14.7807 -14.7569 -14.6555 -14.6300 -14.6196
   -14.5345 -14.5343  -2.2697   1.6556   4.3786   5.8603

          k = 0.4375-0.4375 0.8125 (  3031 PWs)   bands (ev):

   -14.9131 -14.9015 -14.8146 -14.7625 -14.7488 -14.6598 -14.6530 -14.6308
   -14.5321 -14.5219  -1.7237   0.7258   4.1524   5.4525

          k = 0.3125-0.3125 0.6875 (  3039 PWs)   bands (ev):

   -14.9130 -14.8989 -14.8221 -14.7580 -14.7457 -14.6772 -14.6477 -14.6189
   -14.5360 -14.5216  -1.7095   0.7035   4.3238   5.2233

          k = 0.1875-0.1875 0.5625 (  3037 PWs)   bands (ev):

   -14.9031 -14.8928 -14.8437 -14.7743 -14.7449 -14.6815 -14.6290 -14.5948
   -14.5449 -14.5322  -2.2514   1.6417   4.7986   5.2333

          k =-0.1875 0.4375 0.1875 (  3016 PWs)   bands (ev):

   -14.8951 -14.8863 -14.8516 -14.7874 -14.7667 -14.6549 -14.6169 -14.5898
   -14.5520 -14.5403  -2.5886   2.2663   5.3349   5.5631

          k =-0.3125 0.5625 0.0625 (  3030 PWs)   bands (ev):

   -14.9042 -14.8994 -14.8319 -14.7736 -14.7435 -14.6793 -14.6311 -14.6095
   -14.5359 -14.5314  -2.1745   1.5320   4.4164   5.3880

          k = 0.5625-0.3125 0.9375 (  3046 PWs)   bands (ev):

   -14.9165 -14.9067 -14.8055 -14.7546 -14.7259 -14.6948 -14.6554 -14.6350
   -14.5268 -14.5181  -1.6047   0.6972   3.9008   5.0127

          k = 0.4375-0.1875 0.8125 (  3048 PWs)   bands (ev):

   -14.9200 -14.9076 -14.7995 -14.7419 -14.7224 -14.7012 -14.6682 -14.6382
   -14.5260 -14.5138  -1.3128   0.3166   3.8622   4.8059

          k = 0.3125-0.0625 0.6875 (  3036 PWs)   bands (ev):

   -14.9108 -14.9047 -14.8201 -14.7566 -14.7214 -14.7056 -14.6479 -14.6181
   -14.5295 -14.5239  -1.7732   0.9394   4.1755   4.9216

          k =-0.1875 0.6875 0.1875 (  3035 PWs)   bands (ev):

   -14.9101 -14.8986 -14.8315 -14.7566 -14.7228 -14.7069 -14.6463 -14.6049
   -14.5368 -14.5243  -1.8420   1.0196   4.3687   4.9711

          k = 0.6875-0.1875 1.0625 (  3049 PWs)   bands (ev):

   -14.9156 -14.9095 -14.8045 -14.7366 -14.7326 -14.6975 -14.6684 -14.6315
   -14.5241 -14.5183  -1.3120   0.3540   4.0342   4.5625

          k = 0.5625-0.0625 0.9375 (  3046 PWs)   bands (ev):

   -14.9205 -14.9154 -14.7745 -14.7426 -14.7170 -14.6942 -14.6853 -14.6580
   -14.5176 -14.5125  -0.7962  -0.2040   3.8686   4.2534

          k = 0.4375 0.0625 0.8125 (  3047 PWs)   bands (ev):

   -14.9198 -14.9115 -14.7911 -14.7365 -14.7199 -14.7052 -14.6739 -14.6447
   -14.5217 -14.5138  -1.2016   0.2291   3.8324   4.5652

          k =-0.1875-1.0625 0.1875 (  3041 PWs)   bands (ev):

   -14.9184 -14.9058 -14.8010 -14.7558 -14.7144 -14.6883 -14.6776 -14.6338
   -14.5269 -14.5146  -0.8864  -0.1479   3.9194   4.6983

          k =-0.3125-0.9375 0.0625 (  3046 PWs)   bands (ev):

   -14.9179 -14.9123 -14.7867 -14.7561 -14.7145 -14.6906 -14.6760 -14.6475
   -14.5206 -14.5151  -0.8148  -0.2045   3.9823   4.3567

          k =-0.1875-0.8125 0.1875 (  3045 PWs)   bands (ev):

   -14.9156 -14.9033 -14.8162 -14.7359 -14.7358 -14.6965 -14.6667 -14.6195
   -14.5303 -14.5183  -1.3729   0.4094   4.0711   4.7903

          k =-0.3125 0.3125 0.3125 (  3019 PWs)   bands (ev):

   -14.8891 -14.8891 -14.8511 -14.7830 -14.7830 -14.6264 -14.6264 -14.5998
   -14.5466 -14.5466  -2.5263   1.9455   5.9235   5.9235

          k =-0.4375 0.4375 0.1875 (  3039 PWs)   bands (ev):

   -14.9003 -14.8974 -14.8337 -14.7797 -14.7633 -14.6481 -14.6286 -14.6163
   -14.5374 -14.5368  -2.2162   1.4328   4.7405   5.8384

          k = 0.4375-0.4375 1.0625 (  3040 PWs)   bands (ev):

   -14.9171 -14.9038 -14.8072 -14.7593 -14.7375 -14.6716 -14.6607 -14.6346
   -14.5293 -14.5179  -1.7035   0.8023   3.8449   5.4104

          k = 0.3125-0.3125 0.9375 (  3046 PWs)   bands (ev):

   -14.9231 -14.9058 -14.8001 -14.7225 -14.7214 -14.7084 -14.6832 -14.6358
   -14.5274 -14.5104  -1.1823   0.1827   3.6676   5.0018

          k =-0.3125 0.5625 0.3125 (  3037 PWs)   bands (ev):

   -14.9047 -14.8941 -14.8352 -14.7723 -14.7597 -14.6582 -14.6335 -14.6098
   -14.5423 -14.5305  -2.0240   1.0755   4.8885   5.4281

          k = 0.5625-0.3125 1.1875 (  3041 PWs)   bands (ev):

   -14.9151 -14.9036 -14.8118 -14.7570 -14.7383 -14.6811 -14.6516 -14.6303
   -14.5305 -14.5194  -1.6262   0.6447   4.0950   5.1208

          k = 0.4375-0.1875 1.0625 (  3044 PWs)   bands (ev):

   -14.9222 -14.9104 -14.7893 -14.7291 -14.7173 -14.7071 -14.6833 -14.6453
   -14.5225 -14.5111  -1.0818   0.0891   3.7307   4.6402

          k =-0.3125-1.1875 0.3125 (  3039 PWs)   bands (ev):

   -14.9195 -14.9032 -14.8091 -14.7399 -14.7320 -14.6948 -14.6659 -14.6286
   -14.5304 -14.5143  -1.4008   0.3901   3.8981   5.0774

          k =-0.4375 0.4375 0.4375 (  3025 PWs)   bands (ev):

   -14.8933 -14.8933 -14.8450 -14.7748 -14.7748 -14.6331 -14.6331 -14.6072
   -14.5421 -14.5421  -1.9935   0.8676   5.7160   5.7160

          k = 0.4375-0.4375 1.3125 (  3032 PWs)   bands (ev):

   -14.9061 -14.8977 -14.8268 -14.7670 -14.7624 -14.6456 -14.6442 -14.6230
   -14.5368 -14.5291  -1.7764   0.6653   4.6741   5.5284

     highest occupied level (ev):     6.6812

!    total energy              =    -318.48941295 Ry
     Harris-Foulkes estimate   =    -318.48941295 Ry
     estimated scf accuracy    <          2.7E-09 Ry

     The total energy is the sum of the following terms:

     one-electron contribution =    -164.27494296 Ry
     hartree contribution      =      98.39024627 Ry
     xc contribution           =     -85.94135136 Ry
     ewald contribution        =    -166.66336490 Ry

     convergence has been achieved in   7 iterations

     Writing output data file sn.alpha.12.67.save

     init_run     :      1.59s CPU      1.63s WALL (       1 calls)
     electrons    :     24.56s CPU     25.24s WALL (       1 calls)

     Called by init_run:
     wfcinit      :      1.09s CPU      1.11s WALL (       1 calls)
     potinit      :      0.06s CPU      0.06s WALL (       1 calls)

     Called by electrons:
     c_bands      :     20.06s CPU     20.47s WALL (       7 calls)
     sum_band     :      3.64s CPU      3.81s WALL (       7 calls)
     v_of_rho     :      0.36s CPU      0.37s WALL (       8 calls)
     newd         :      0.55s CPU      0.60s WALL (       8 calls)
     mix_rho      :      0.03s CPU      0.03s WALL (       7 calls)

     Called by c_bands:
     init_us_2    :      0.41s CPU      0.41s WALL (     900 calls)
     cegterg      :     19.31s CPU     19.71s WALL (     420 calls)

     Called by sum_band:
     sum_band:bec :      0.00s CPU      0.00s WALL (     420 calls)
     addusdens    :      0.55s CPU      0.66s WALL (       7 calls)

     Called by *egterg:
     h_psi        :     17.62s CPU     18.02s WALL (    1722 calls)
     s_psi        :      0.27s CPU      0.27s WALL (    1722 calls)
     g_psi        :      0.08s CPU      0.08s WALL (    1242 calls)
     cdiaghg      :      0.73s CPU      0.73s WALL (    1662 calls)

     Called by h_psi:
     h_psi:pot    :     17.46s CPU     17.86s WALL (    1722 calls)
     h_psi:calbec :      0.54s CPU      0.55s WALL (    1722 calls)
     vloc_psi     :     16.52s CPU     16.89s WALL (    1722 calls)
     add_vuspsi   :      0.40s CPU      0.41s WALL (    1722 calls)

     General routines
     calbec       :      0.66s CPU      0.67s WALL (    2142 calls)
     fft          :      0.18s CPU      0.18s WALL (     124 calls)
     ffts         :      0.01s CPU      0.01s WALL (      15 calls)
     fftw         :     16.02s CPU     16.41s WALL (   45602 calls)
     interpolate  :      0.04s CPU      0.04s WALL (      15 calls)
     davcio       :      0.00s CPU      0.01s WALL (      60 calls)

     Parallel routines
     fft_scatter  :      2.17s CPU      2.15s WALL (   45741 calls)

     PWSCF        :    26.32s CPU        28.11s WALL


   This run was terminated on:  16:15:23  11Nov2017            

=------------------------------------------------------------------------------=
   JOB DONE.
=------------------------------------------------------------------------------=
