
     Program PWSCF v.6.1 (svn rev. 13369) starts on 11Nov2017 at 16:10:52 

     This program is part of the open-source Quantum ESPRESSO suite
     for quantum simulation of materials; please cite
         "P. Giannozzi et al., J. Phys.:Condens. Matter 21 395502 (2009);
          URL http://www.quantum-espresso.org", 
     in publications or presentations arising from this work. More details at
     http://www.quantum-espresso.org/quote

     Parallel version (MPI), running on     4 processors
     R & G space division:  proc/nbgrp/npool/nimage =       4
     Waiting for input...
     Reading input from standard input
     Message from routine read_cards :
     DEPRECATED: no units specified in ATOMIC_POSITIONS card
     Message from routine read_cards :
     ATOMIC_POSITIONS: units set to alat

     Current dimensions of program PWSCF are:
     Max number of different atomic species (ntypx) = 10
     Max number of k-points (npk) =  40000
     Max angular momentum in pseudopotentials (lmaxx) =  3

     Subspace diagonalization in iterative solution of the eigenvalue problem:
     a serial algorithm will be used


     Parallelization info
     --------------------
     sticks:   dense  smooth     PW     G-vecs:    dense   smooth      PW
     Min         537     267     78                16356     5791     958
     Max         538     268     79                16357     5794     963
     Sum        2149    1069    313                65427    23169    3839



     bravais-lattice index     =            2
     lattice parameter (alat)  =      12.4700  a.u.
     unit-cell volume          =     484.7741 (a.u.)^3
     number of atoms/cell      =            2
     number of atomic types    =            1
     number of electrons       =        28.00
     number of Kohn-Sham states=           14
     kinetic-energy cutoff     =      50.0000  Ry
     charge density cutoff     =     400.0000  Ry
     convergence threshold     =      1.0E-08
     mixing beta               =       0.7000
     number of iterations used =            8  plain     mixing
     Exchange-correlation      =  SLA  PW   PBX  PBC ( 1  4  3  4 0 0)

     celldm(1)=  12.470000  celldm(2)=   0.000000  celldm(3)=   0.000000
     celldm(4)=   0.000000  celldm(5)=   0.000000  celldm(6)=   0.000000

     crystal axes: (cart. coord. in units of alat)
               a(1) = (  -0.500000   0.000000   0.500000 )  
               a(2) = (   0.000000   0.500000   0.500000 )  
               a(3) = (  -0.500000   0.500000   0.000000 )  

     reciprocal axes: (cart. coord. in units 2 pi/alat)
               b(1) = ( -1.000000 -1.000000  1.000000 )  
               b(2) = (  1.000000  1.000000  1.000000 )  
               b(3) = ( -1.000000  1.000000 -1.000000 )  


     PseudoPot. # 1 for Sn read from file:
     /home/s1333534/quantum_espresso/qe-6.1/pseudo/sn_pbe_v1.4.uspp.F.UPF
     MD5 check sum: 469debedee59599fedebd795477fea03
     Pseudo is Ultrasoft + core correction, Zval = 14.0
     Generated by new atomic code, or converted to UPF format
     Using radial grid of  891 points,  6 beta functions with: 
                l(1) =   0
                l(2) =   0
                l(3) =   1
                l(4) =   1
                l(5) =   2
                l(6) =   2
     Q(r) pseudized with  8 coefficients,  rinner =    1.350   1.350   1.350
                                                       1.350   1.350

     atomic species   valence    mass     pseudopotential
        Sn            14.00   118.71000     Sn( 1.00)

     48 Sym. Ops., with inversion, found (24 have fractional translation)



   Cartesian axes

     site n.     atom                  positions (alat units)
         1           Sn  tau(   1) = (   0.0000000   0.0000000   0.0000000  )
         2           Sn  tau(   2) = (   0.2500000   0.2500000   0.2500000  )

     number of k points=    60
                       cart. coord. in units 2pi/alat
        k(    1) = (  -0.0625000   0.0625000   0.0625000), wk =   0.0078125
        k(    2) = (  -0.1875000   0.1875000  -0.0625000), wk =   0.0234375
        k(    3) = (  -0.3125000   0.3125000  -0.1875000), wk =   0.0234375
        k(    4) = (  -0.4375000   0.4375000  -0.3125000), wk =   0.0234375
        k(    5) = (   0.4375000  -0.4375000   0.5625000), wk =   0.0234375
        k(    6) = (   0.3125000  -0.3125000   0.4375000), wk =   0.0234375
        k(    7) = (   0.1875000  -0.1875000   0.3125000), wk =   0.0234375
        k(    8) = (   0.0625000  -0.0625000   0.1875000), wk =   0.0234375
        k(    9) = (  -0.0625000   0.3125000   0.0625000), wk =   0.0234375
        k(   10) = (  -0.1875000   0.4375000  -0.0625000), wk =   0.0468750
        k(   11) = (  -0.3125000   0.5625000  -0.1875000), wk =   0.0468750
        k(   12) = (   0.5625000  -0.3125000   0.6875000), wk =   0.0468750
        k(   13) = (   0.4375000  -0.1875000   0.5625000), wk =   0.0468750
        k(   14) = (   0.3125000  -0.0625000   0.4375000), wk =   0.0468750
        k(   15) = (   0.1875000   0.0625000   0.3125000), wk =   0.0468750
        k(   16) = (  -0.0625000   0.5625000   0.0625000), wk =   0.0234375
        k(   17) = (  -0.1875000   0.6875000  -0.0625000), wk =   0.0468750
        k(   18) = (   0.6875000  -0.1875000   0.8125000), wk =   0.0468750
        k(   19) = (   0.5625000  -0.0625000   0.6875000), wk =   0.0468750
        k(   20) = (   0.4375000   0.0625000   0.5625000), wk =   0.0468750
        k(   21) = (   0.3125000   0.1875000   0.4375000), wk =   0.0468750
        k(   22) = (  -0.0625000   0.8125000   0.0625000), wk =   0.0234375
        k(   23) = (   0.8125000  -0.0625000   0.9375000), wk =   0.0468750
        k(   24) = (   0.6875000   0.0625000   0.8125000), wk =   0.0468750
        k(   25) = (   0.5625000   0.1875000   0.6875000), wk =   0.0468750
        k(   26) = (   0.4375000   0.3125000   0.5625000), wk =   0.0468750
        k(   27) = (  -0.0625000  -0.9375000   0.0625000), wk =   0.0234375
        k(   28) = (  -0.1875000  -0.8125000  -0.0625000), wk =   0.0468750
        k(   29) = (  -0.3125000  -0.6875000  -0.1875000), wk =   0.0468750
        k(   30) = (  -0.0625000  -0.6875000   0.0625000), wk =   0.0234375
        k(   31) = (  -0.1875000  -0.5625000  -0.0625000), wk =   0.0468750
        k(   32) = (  -0.0625000  -0.4375000   0.0625000), wk =   0.0234375
        k(   33) = (  -0.1875000   0.1875000   0.1875000), wk =   0.0078125
        k(   34) = (  -0.3125000   0.3125000   0.0625000), wk =   0.0234375
        k(   35) = (  -0.4375000   0.4375000  -0.0625000), wk =   0.0234375
        k(   36) = (   0.4375000  -0.4375000   0.8125000), wk =   0.0234375
        k(   37) = (   0.3125000  -0.3125000   0.6875000), wk =   0.0234375
        k(   38) = (   0.1875000  -0.1875000   0.5625000), wk =   0.0234375
        k(   39) = (  -0.1875000   0.4375000   0.1875000), wk =   0.0234375
        k(   40) = (  -0.3125000   0.5625000   0.0625000), wk =   0.0468750
        k(   41) = (   0.5625000  -0.3125000   0.9375000), wk =   0.0468750
        k(   42) = (   0.4375000  -0.1875000   0.8125000), wk =   0.0468750
        k(   43) = (   0.3125000  -0.0625000   0.6875000), wk =   0.0468750
        k(   44) = (  -0.1875000   0.6875000   0.1875000), wk =   0.0234375
        k(   45) = (   0.6875000  -0.1875000   1.0625000), wk =   0.0468750
        k(   46) = (   0.5625000  -0.0625000   0.9375000), wk =   0.0468750
        k(   47) = (   0.4375000   0.0625000   0.8125000), wk =   0.0468750
        k(   48) = (  -0.1875000  -1.0625000   0.1875000), wk =   0.0234375
        k(   49) = (  -0.3125000  -0.9375000   0.0625000), wk =   0.0468750
        k(   50) = (  -0.1875000  -0.8125000   0.1875000), wk =   0.0234375
        k(   51) = (  -0.3125000   0.3125000   0.3125000), wk =   0.0078125
        k(   52) = (  -0.4375000   0.4375000   0.1875000), wk =   0.0234375
        k(   53) = (   0.4375000  -0.4375000   1.0625000), wk =   0.0234375
        k(   54) = (   0.3125000  -0.3125000   0.9375000), wk =   0.0234375
        k(   55) = (  -0.3125000   0.5625000   0.3125000), wk =   0.0234375
        k(   56) = (   0.5625000  -0.3125000   1.1875000), wk =   0.0468750
        k(   57) = (   0.4375000  -0.1875000   1.0625000), wk =   0.0468750
        k(   58) = (  -0.3125000  -1.1875000   0.3125000), wk =   0.0234375
        k(   59) = (  -0.4375000   0.4375000   0.4375000), wk =   0.0078125
        k(   60) = (   0.4375000  -0.4375000   1.3125000), wk =   0.0234375

     Dense  grid:    65427 G-vectors     FFT dimensions: (  60,  60,  60)

     Smooth grid:    23169 G-vectors     FFT dimensions: (  40,  40,  40)

     Estimated max dynamical RAM per process >      21.34MB

     Estimated total allocated dynamical RAM >      85.35MB

     Initial potential from superposition of free atoms

     starting charge   25.99991, renormalised to   28.00000
     Starting wfc are   18 randomized atomic wfcs

     total cpu time spent up to now is        1.3 secs

     per-process dynamical memory:    25.4 Mb

     Self-consistent Calculation

     iteration #  1     ecut=    50.00 Ry     beta=0.70
     Davidson diagonalization with overlap
     ethr =  1.00E-02,  avg # of iterations =  2.7

     total cpu time spent up to now is        3.9 secs

     total energy              =    -317.48782269 Ry
     Harris-Foulkes estimate   =    -319.54401985 Ry
     estimated scf accuracy    <       2.50548594 Ry

     iteration #  2     ecut=    50.00 Ry     beta=0.70
     Davidson diagonalization with overlap
     ethr =  8.95E-03,  avg # of iterations =  3.0

     total cpu time spent up to now is        6.7 secs

     total energy              =    -318.39366089 Ry
     Harris-Foulkes estimate   =    -318.71123036 Ry
     estimated scf accuracy    <       0.47322598 Ry

     iteration #  3     ecut=    50.00 Ry     beta=0.70
     Davidson diagonalization with overlap
     ethr =  1.69E-03,  avg # of iterations =  2.0

     total cpu time spent up to now is        9.1 secs

     total energy              =    -318.48852515 Ry
     Harris-Foulkes estimate   =    -318.49009761 Ry
     estimated scf accuracy    <       0.00288199 Ry

     iteration #  4     ecut=    50.00 Ry     beta=0.70
     Davidson diagonalization with overlap
     ethr =  1.03E-05,  avg # of iterations =  3.0

     total cpu time spent up to now is       11.7 secs

     total energy              =    -318.48941593 Ry
     Harris-Foulkes estimate   =    -318.48953385 Ry
     estimated scf accuracy    <       0.00017493 Ry

     iteration #  5     ecut=    50.00 Ry     beta=0.70
     Davidson diagonalization with overlap
     ethr =  6.25E-07,  avg # of iterations =  3.0

     total cpu time spent up to now is       14.4 secs

     total energy              =    -318.48946911 Ry
     Harris-Foulkes estimate   =    -318.48946978 Ry
     estimated scf accuracy    <       0.00000144 Ry

     iteration #  6     ecut=    50.00 Ry     beta=0.70
     Davidson diagonalization with overlap
     ethr =  5.13E-09,  avg # of iterations =  4.0

     total cpu time spent up to now is       17.2 secs

     total energy              =    -318.48946987 Ry
     Harris-Foulkes estimate   =    -318.48946993 Ry
     estimated scf accuracy    <       0.00000009 Ry

     iteration #  7     ecut=    50.00 Ry     beta=0.70
     Davidson diagonalization with overlap
     ethr =  3.06E-10,  avg # of iterations =  3.1

     total cpu time spent up to now is       19.9 secs

     End of self-consistent calculation

          k =-0.0625 0.0625 0.0625 (  2852 PWs)   bands (ev):

   -14.3813 -14.3813 -14.3772 -14.3232 -14.3232 -14.0667 -14.0667 -14.0579
   -14.0439 -14.0439  -3.0177   5.7783   7.2357   7.2357

          k =-0.1875 0.1875-0.0625 (  2861 PWs)   bands (ev):

   -14.3938 -14.3889 -14.3746 -14.3113 -14.3038 -14.0913 -14.0815 -14.0549
   -14.0388 -14.0251  -2.8279   4.5470   6.5326   7.0947

          k =-0.3125 0.3125-0.1875 (  2887 PWs)   bands (ev):

   -14.4064 -14.4033 -14.3628 -14.2927 -14.2824 -14.1111 -14.0986 -14.0715
   -14.0210 -14.0126  -2.3761   2.9231   6.0315   6.6594

          k =-0.4375 0.4375-0.3125 (  2892 PWs)   bands (ev):

   -14.4123 -14.4119 -14.3515 -14.2792 -14.2714 -14.1185 -14.1086 -14.0879
   -14.0097 -14.0076  -1.7776   1.5807   5.7835   6.2903

          k = 0.4375-0.4375 0.5625 (  2894 PWs)   bands (ev):

   -14.4156 -14.4115 -14.3490 -14.2726 -14.2718 -14.1172 -14.1146 -14.0912
   -14.0093 -14.0046  -1.5110   1.1218   5.7855   6.1116

          k = 0.3125-0.3125 0.4375 (  2897 PWs)   bands (ev):

   -14.4129 -14.4070 -14.3567 -14.2825 -14.2732 -14.1210 -14.1044 -14.0808
   -14.0151 -14.0069  -1.9758   1.9680   6.0211   6.1616

          k = 0.1875-0.1875 0.3125 (  2885 PWs)   bands (ev):

   -14.4029 -14.3978 -14.3686 -14.2992 -14.2876 -14.1112 -14.0884 -14.0651
   -14.0266 -14.0166  -2.5517   3.4560   6.4381   6.4466

          k = 0.0625-0.0625 0.1875 (  2857 PWs)   bands (ev):

   -14.3877 -14.3847 -14.3784 -14.3187 -14.3094 -14.0896 -14.0664 -14.0540
   -14.0436 -14.0319  -2.9221   5.0850   6.8774   6.9150

          k =-0.0625 0.3125 0.0625 (  2879 PWs)   bands (ev):

   -14.3951 -14.3914 -14.3808 -14.3091 -14.2879 -14.1186 -14.0722 -14.0466
   -14.0386 -14.0248  -2.7317   4.2569   6.3950   6.4083

          k =-0.1875 0.4375-0.0625 (  2887 PWs)   bands (ev):

   -14.4089 -14.4036 -14.3673 -14.2921 -14.2626 -14.1454 -14.0906 -14.0575
   -14.0230 -14.0112  -2.3619   3.1150   5.6001   6.1675

          k =-0.3125 0.5625-0.1875 (  2895 PWs)   bands (ev):

   -14.4239 -14.4127 -14.3439 -14.2733 -14.2481 -14.1567 -14.1107 -14.0847
   -14.0087 -13.9958  -1.7848   1.8338   5.0863   5.8575

          k = 0.5625-0.3125 0.6875 (  2900 PWs)   bands (ev):

   -14.4309 -14.4174 -14.3276 -14.2593 -14.2516 -14.1465 -14.1291 -14.1043
   -14.0018 -13.9884  -1.3126   1.0466   4.8211   5.7883

          k = 0.4375-0.1875 0.5625 (  2894 PWs)   bands (ev):

   -14.4269 -14.4175 -14.3308 -14.2712 -14.2501 -14.1455 -14.1152 -14.1056
   -14.0012 -13.9934  -1.5903   1.4879   4.8214   6.0020

          k = 0.3125-0.0625 0.4375 (  2888 PWs)   bands (ev):

   -14.4138 -14.4113 -14.3515 -14.2879 -14.2625 -14.1378 -14.1004 -14.0774
   -14.0134 -14.0048  -2.1917   2.6683   5.1800   6.4022

          k = 0.1875 0.0625 0.3125 (  2877 PWs)   bands (ev):

   -14.4013 -14.3955 -14.3716 -14.3037 -14.2869 -14.1150 -14.0838 -14.0554
   -14.0332 -14.0174  -2.6404   3.8491   6.0580   6.7047

          k =-0.0625 0.5625 0.0625 (  2880 PWs)   bands (ev):

   -14.4108 -14.4077 -14.3722 -14.2759 -14.2301 -14.1852 -14.1032 -14.0452
   -14.0163 -14.0118  -2.0740   2.5703   5.4794   5.5701

          k =-0.1875 0.6875-0.0625 (  2897 PWs)   bands (ev):

   -14.4241 -14.4183 -14.3465 -14.2540 -14.2121 -14.2042 -14.1263 -14.0738
   -14.0021 -13.9955  -1.5468   1.6378   4.8989   5.3013

          k = 0.6875-0.1875 0.8125 (  2899 PWs)   bands (ev):

   -14.4392 -14.4235 -14.3144 -14.2328 -14.2151 -14.1982 -14.1512 -14.1076
   -13.9945 -13.9784  -0.9564   0.8143   4.3062   5.2697

          k = 0.5625-0.0625 0.6875 (  2905 PWs)   bands (ev):

   -14.4419 -14.4248 -14.3053 -14.2383 -14.2189 -14.1806 -14.1595 -14.1179
   -13.9923 -13.9763  -1.0214   0.8971   4.0861   5.5303

          k = 0.4375 0.0625 0.5625 (  2894 PWs)   bands (ev):

   -14.4300 -14.4205 -14.3237 -14.2703 -14.2396 -14.1572 -14.1169 -14.1114
   -13.9970 -13.9907  -1.6205   1.6693   4.4783   5.9775

          k = 0.3125 0.1875 0.4375 (  2894 PWs)   bands (ev):

   -14.4142 -14.4079 -14.3549 -14.2859 -14.2678 -14.1307 -14.1012 -14.0779
   -14.0154 -14.0053  -2.1179   2.3716   5.5642   6.3063

          k =-0.0625 0.8125 0.0625 (  2893 PWs)   bands (ev):

   -14.4237 -14.4213 -14.3398 -14.2546 -14.2289 -14.1653 -14.1497 -14.0793
   -13.9970 -13.9945  -1.0714   0.9682   4.9329   5.0627

          k = 0.8125-0.0625 0.9375 (  2898 PWs)   bands (ev):

   -14.4325 -14.4268 -14.3060 -14.2737 -14.2035 -14.1763 -14.1458 -14.1142
   -13.9903 -13.9843  -0.4356   0.2319   4.5795   4.9092

          k = 0.6875 0.0625 0.8125 (  2897 PWs)   bands (ev):

   -14.4425 -14.4264 -14.3010 -14.2305 -14.2097 -14.1856 -14.1738 -14.1191
   -13.9906 -13.9744  -0.5676   0.3980   4.1226   5.1544

          k = 0.5625 0.1875 0.6875 (  2902 PWs)   bands (ev):

   -14.4381 -14.4219 -14.3140 -14.2469 -14.2349 -14.1655 -14.1458 -14.1124
   -13.9960 -13.9805  -1.1247   0.9327   4.3595   5.6164

          k = 0.4375 0.3125 0.5625 (  2893 PWs)   bands (ev):

   -14.4214 -14.4134 -14.3411 -14.2720 -14.2632 -14.1294 -14.1149 -14.0964
   -14.0067 -13.9987  -1.5451   1.2646   5.3431   6.0440

          k =-0.0625-0.9375 0.0625 (  2907 PWs)   bands (ev):

   -14.4269 -14.4245 -14.3158 -14.2865 -14.2029 -14.1759 -14.1342 -14.1046
   -13.9930 -13.9904  -0.4553   0.2295   4.8213   4.9586

          k =-0.1875-0.8125-0.0625 (  2895 PWs)   bands (ev):

   -14.4295 -14.4238 -14.3282 -14.2442 -14.2295 -14.1742 -14.1504 -14.0918
   -13.9943 -13.9884  -1.0224   0.9180   4.6873   5.0406

          k =-0.3125-0.6875-0.1875 (  2891 PWs)   bands (ev):

   -14.4325 -14.4184 -14.3300 -14.2549 -14.2265 -14.1831 -14.1287 -14.0945
   -14.0011 -13.9859  -1.3892   1.3134   4.6456   5.5033

          k =-0.0625-0.6875 0.0625 (  2884 PWs)   bands (ev):

   -14.4181 -14.4154 -14.3589 -14.2536 -14.2202 -14.1979 -14.1250 -14.0588
   -14.0055 -14.0022  -1.6134   1.7525   5.1539   5.2685

          k =-0.1875-0.5625-0.0625 (  2890 PWs)   bands (ev):

   -14.4166 -14.4114 -14.3595 -14.2751 -14.2348 -14.1779 -14.1057 -14.0623
   -14.0119 -14.0039  -1.9957   2.3740   5.2069   5.6835

          k =-0.0625-0.4375 0.0625 (  2882 PWs)   bands (ev):

   -14.4028 -14.3996 -14.3793 -14.2946 -14.2603 -14.1509 -14.0852 -14.0412
   -14.0284 -14.0198  -2.4481   3.4097   5.8997   5.9569

          k =-0.1875 0.1875 0.1875 (  2875 PWs)   bands (ev):

   -14.3949 -14.3949 -14.3719 -14.3030 -14.3030 -14.0891 -14.0891 -14.0659
   -14.0264 -14.0264  -2.7354   4.0755   6.8256   6.8256

          k =-0.3125 0.3125 0.0625 (  2879 PWs)   bands (ev):

   -14.4072 -14.4030 -14.3612 -14.2966 -14.2795 -14.1160 -14.0982 -14.0655
   -14.0243 -14.0106  -2.4594   3.2796   5.6070   6.7951

          k =-0.4375 0.4375-0.0625 (  2901 PWs)   bands (ev):

   -14.4212 -14.4167 -14.3365 -14.2824 -14.2550 -14.1384 -14.1100 -14.0974
   -14.0021 -14.0007  -1.9421   2.1721   4.7876   6.3636

          k = 0.4375-0.4375 0.8125 (  2894 PWs)   bands (ev):

   -14.4328 -14.4195 -14.3214 -14.2618 -14.2458 -14.1428 -14.1360 -14.1110
   -13.9984 -13.9867  -1.3601   1.1777   4.5613   5.9295

          k = 0.3125-0.3125 0.6875 (  2897 PWs)   bands (ev):

   -14.4327 -14.4161 -14.3303 -14.2560 -14.2423 -14.1639 -14.1287 -14.0969
   -14.0035 -13.9862  -1.3455   1.1544   4.7472   5.6852

          k = 0.1875-0.1875 0.5625 (  2901 PWs)   bands (ev):

   -14.4213 -14.4094 -14.3551 -14.2743 -14.2411 -14.1695 -14.1077 -14.0691
   -14.0139 -13.9988  -1.9236   2.1604   5.2437   5.6938

          k =-0.1875 0.4375 0.1875 (  2891 PWs)   bands (ev):

   -14.4122 -14.4029 -14.3637 -14.2896 -14.2660 -14.1393 -14.0942 -14.0642
   -14.0221 -14.0078  -2.2795   2.8091   5.8198   6.0430

          k =-0.3125 0.5625 0.0625 (  2896 PWs)   bands (ev):

   -14.4226 -14.4174 -14.3412 -14.2738 -14.2397 -14.1668 -14.1095 -14.0868
   -14.0032 -13.9979  -1.8422   2.0497   4.8273   5.8605

          k = 0.5625-0.3125 0.9375 (  2901 PWs)   bands (ev):

   -14.4367 -14.4255 -14.3108 -14.2522 -14.2193 -14.1842 -14.1376 -14.1155
   -13.9920 -13.9823  -1.2381   1.1731   4.2791   5.4584

          k = 0.4375-0.1875 0.8125 (  2900 PWs)   bands (ev):

   -14.4405 -14.4265 -14.3040 -14.2376 -14.2153 -14.1914 -14.1523 -14.1189
   -13.9911 -13.9772  -0.9266   0.7678   4.2419   5.2371

          k = 0.3125-0.0625 0.6875 (  2897 PWs)   bands (ev):

   -14.4301 -14.4234 -14.3277 -14.2544 -14.2143 -14.1970 -14.1288 -14.0963
   -13.9953 -13.9891  -1.4183   1.4322   4.5709   5.3613

          k =-0.1875 0.6875 0.1875 (  2898 PWs)   bands (ev):

   -14.4295 -14.4160 -14.3413 -14.2540 -14.2158 -14.1987 -14.1272 -14.0803
   -14.0045 -13.9896  -1.4914   1.5138   4.7798   5.4166

          k = 0.6875-0.1875 1.0625 (  2900 PWs)   bands (ev):

   -14.4354 -14.4286 -14.3101 -14.2314 -14.2276 -14.1865 -14.1525 -14.1112
   -13.9891 -13.9823  -0.9313   0.8205   4.4189   4.9783

          k = 0.5625-0.0625 0.9375 (  2896 PWs)   bands (ev):

   -14.4410 -14.4353 -14.2754 -14.2389 -14.2088 -14.1825 -14.1725 -14.1414
   -13.9815 -13.9756  -0.3845   0.2351   4.2395   4.6480

          k = 0.4375 0.0625 0.8125 (  2896 PWs)   bands (ev):

   -14.4402 -14.4310 -14.2943 -14.2314 -14.2129 -14.1954 -14.1590 -14.1263
   -13.9862 -13.9772  -0.8120   0.6868   4.2039   4.9801

          k =-0.1875-1.0625 0.1875 (  2898 PWs)   bands (ev):

   -14.4386 -14.4245 -14.3072 -14.2545 -14.2054 -14.1754 -14.1640 -14.1132
   -13.9925 -13.9783  -0.4813   0.2905   4.2944   5.1285

          k =-0.3125-0.9375 0.0625 (  2897 PWs)   bands (ev):

   -14.4379 -14.4317 -14.2898 -14.2546 -14.2057 -14.1781 -14.1620 -14.1295
   -13.9852 -13.9788  -0.4063   0.2343   4.3612   4.7603

          k =-0.1875-0.8125 0.1875 (  2897 PWs)   bands (ev):

   -14.4352 -14.4215 -14.3240 -14.2317 -14.2304 -14.1853 -14.1506 -14.0968
   -13.9968 -13.9823  -0.9960   0.8765   4.4582   5.2257

          k =-0.3125 0.3125 0.3125 (  2905 PWs)   bands (ev):

   -14.4061 -14.4061 -14.3628 -14.2849 -14.2849 -14.1054 -14.1054 -14.0774
   -14.0153 -14.0153  -2.2125   2.4447   6.4296   6.4296

          k =-0.4375 0.4375 0.1875 (  2904 PWs)   bands (ev):

   -14.4177 -14.4150 -14.3430 -14.2813 -14.2623 -14.1297 -14.1082 -14.0947
   -14.0054 -14.0033  -1.8841   1.9163   5.1875   6.3406

          k = 0.4375-0.4375 1.0625 (  2901 PWs)   bands (ev):

   -14.4372 -14.4219 -14.3131 -14.2576 -14.2326 -14.1568 -14.1454 -14.1147
   -13.9952 -13.9821  -1.3415   1.2779   4.2204   5.8845

          k = 0.3125-0.3125 0.9375 (  2901 PWs)   bands (ev):

   -14.4440 -14.4240 -14.3057 -14.2154 -14.2142 -14.1997 -14.1696 -14.1158
   -13.9928 -13.9735  -0.7889   0.6316   4.0279   5.4504

          k =-0.3125 0.5625 0.3125 (  2894 PWs)   bands (ev):

   -14.4229 -14.4109 -14.3447 -14.2724 -14.2585 -14.1419 -14.1125 -14.0870
   -14.0107 -13.9966  -1.6791   1.5339   5.3561   5.9025

          k = 0.5625-0.3125 1.1875 (  2898 PWs)   bands (ev):

   -14.4350 -14.4218 -14.3180 -14.2553 -14.2337 -14.1684 -14.1333 -14.1103
   -13.9966 -13.9838  -1.2580   1.1013   4.4977   5.5735

          k = 0.4375-0.1875 1.0625 (  2898 PWs)   bands (ev):

   -14.4430 -14.4296 -14.2926 -14.2230 -14.2099 -14.1977 -14.1697 -14.1269
   -13.9873 -13.9742  -0.6838   0.5376   4.0945   5.0614

          k =-0.3125-1.1875 0.3125 (  2901 PWs)   bands (ev):

   -14.4400 -14.4214 -14.3158 -14.2351 -14.2265 -14.1844 -14.1498 -14.1080
   -13.9966 -13.9779  -1.0189   0.8389   4.2822   5.5305

          k =-0.4375 0.4375 0.4375 (  2902 PWs)   bands (ev):

   -14.4102 -14.4102 -14.3556 -14.2762 -14.2762 -14.1120 -14.1120 -14.0851
   -14.0109 -14.0109  -1.6431   1.2934   6.2110   6.2110

          k = 0.4375-0.4375 1.3125 (  2891 PWs)   bands (ev):

   -14.4248 -14.4152 -14.3353 -14.2669 -14.2613 -14.1264 -14.1251 -14.1025
   -14.0038 -13.9952  -1.4126   1.0928   5.1279   6.0107

     highest occupied level (ev):     7.2357

!    total energy              =    -318.48946991 Ry
     Harris-Foulkes estimate   =    -318.48946991 Ry
     estimated scf accuracy    <          2.3E-09 Ry

     The total energy is the sum of the following terms:

     one-electron contribution =    -159.90217231 Ry
     hartree contribution      =      96.73449722 Ry
     xc contribution           =     -85.98540081 Ry
     ewald contribution        =    -169.33639401 Ry

     convergence has been achieved in   7 iterations

     Writing output data file sn.alpha.12.47.save

     init_run     :      1.24s CPU      1.28s WALL (       1 calls)
     electrons    :     17.84s CPU     18.62s WALL (       1 calls)

     Called by init_run:
     wfcinit      :      0.77s CPU      0.79s WALL (       1 calls)
     potinit      :      0.06s CPU      0.06s WALL (       1 calls)

     Called by electrons:
     c_bands      :     14.33s CPU     14.81s WALL (       7 calls)
     sum_band     :      2.69s CPU      2.86s WALL (       7 calls)
     v_of_rho     :      0.36s CPU      0.38s WALL (       8 calls)
     newd         :      0.50s CPU      0.59s WALL (       8 calls)
     mix_rho      :      0.03s CPU      0.03s WALL (       7 calls)

     Called by c_bands:
     init_us_2    :      0.38s CPU      0.39s WALL (     900 calls)
     cegterg      :     13.61s CPU     14.08s WALL (     420 calls)

     Called by sum_band:
     sum_band:bec :      0.00s CPU      0.00s WALL (     420 calls)
     addusdens    :      0.52s CPU      0.64s WALL (       7 calls)

     Called by *egterg:
     h_psi        :     11.74s CPU     12.18s WALL (    1726 calls)
     s_psi        :      0.25s CPU      0.26s WALL (    1726 calls)
     g_psi        :      0.08s CPU      0.08s WALL (    1246 calls)
     cdiaghg      :      0.73s CPU      0.73s WALL (    1666 calls)

     Called by h_psi:
     h_psi:pot    :     11.57s CPU     12.02s WALL (    1726 calls)
     h_psi:calbec :      0.48s CPU      0.49s WALL (    1726 calls)
     vloc_psi     :     10.72s CPU     11.14s WALL (    1726 calls)
     add_vuspsi   :      0.38s CPU      0.38s WALL (    1726 calls)

     General routines
     calbec       :      0.60s CPU      0.62s WALL (    2146 calls)
     fft          :      0.16s CPU      0.17s WALL (     124 calls)
     ffts         :      0.01s CPU      0.01s WALL (      15 calls)
     fftw         :      9.66s CPU     10.04s WALL (   45610 calls)
     interpolate  :      0.04s CPU      0.04s WALL (      15 calls)
     davcio       :      0.00s CPU      0.00s WALL (      60 calls)

     Parallel routines
     fft_scatter  :      1.60s CPU      1.61s WALL (   45749 calls)

     PWSCF        :    19.24s CPU        21.13s WALL


   This run was terminated on:  16:11:13  11Nov2017            

=------------------------------------------------------------------------------=
   JOB DONE.
=------------------------------------------------------------------------------=
