
     Program PWSCF v.6.1 (svn rev. 13369) starts on 12Nov2017 at 12:58:58 

     This program is part of the open-source Quantum ESPRESSO suite
     for quantum simulation of materials; please cite
         "P. Giannozzi et al., J. Phys.:Condens. Matter 21 395502 (2009);
          URL http://www.quantum-espresso.org", 
     in publications or presentations arising from this work. More details at
     http://www.quantum-espresso.org/quote

     Parallel version (MPI), running on     4 processors
     R & G space division:  proc/nbgrp/npool/nimage =       4
     Waiting for input...
     Reading input from standard input
     Message from routine read_cards :
     DEPRECATED: no units specified in ATOMIC_POSITIONS card
     Message from routine read_cards :
     ATOMIC_POSITIONS: units set to alat

     Current dimensions of program PWSCF are:
     Max number of different atomic species (ntypx) = 10
     Max number of k-points (npk) =  40000
     Max angular momentum in pseudopotentials (lmaxx) =  3

     Subspace diagonalization in iterative solution of the eigenvalue problem:
     a serial algorithm will be used


     Parallelization info
     --------------------
     sticks:   dense  smooth     PW     G-vecs:    dense   smooth      PW
     Min         303     148     49                 6984     2458     457
     Max         304     149     50                 6987     2462     460
     Sum        1213     595    199                27941     9841    1837



     bravais-lattice index     =            2
     lattice parameter (alat)  =      12.5650  a.u.
     unit-cell volume          =     495.9381 (a.u.)^3
     number of atoms/cell      =            2
     number of atomic types    =            1
     number of electrons       =        28.00
     number of Kohn-Sham states=           14
     kinetic-energy cutoff     =      28.0000  Ry
     charge density cutoff     =     224.0000  Ry
     convergence threshold     =      1.0E-08
     mixing beta               =       0.7000
     number of iterations used =            8  plain     mixing
     Exchange-correlation      =  SLA  PW   PBX  PBC ( 1  4  3  4 0 0)

     celldm(1)=  12.565000  celldm(2)=   0.000000  celldm(3)=   0.000000
     celldm(4)=   0.000000  celldm(5)=   0.000000  celldm(6)=   0.000000

     crystal axes: (cart. coord. in units of alat)
               a(1) = (  -0.500000   0.000000   0.500000 )  
               a(2) = (   0.000000   0.500000   0.500000 )  
               a(3) = (  -0.500000   0.500000   0.000000 )  

     reciprocal axes: (cart. coord. in units 2 pi/alat)
               b(1) = ( -1.000000 -1.000000  1.000000 )  
               b(2) = (  1.000000  1.000000  1.000000 )  
               b(3) = ( -1.000000  1.000000 -1.000000 )  


     PseudoPot. # 1 for Sn read from file:
     /home/s1333534/quantum_espresso/qe-6.1/pseudo/sn_pbe_v1.4.uspp.F.UPF
     MD5 check sum: 469debedee59599fedebd795477fea03
     Pseudo is Ultrasoft + core correction, Zval = 14.0
     Generated by new atomic code, or converted to UPF format
     Using radial grid of  891 points,  6 beta functions with: 
                l(1) =   0
                l(2) =   0
                l(3) =   1
                l(4) =   1
                l(5) =   2
                l(6) =   2
     Q(r) pseudized with  8 coefficients,  rinner =    1.350   1.350   1.350
                                                       1.350   1.350

     atomic species   valence    mass     pseudopotential
        Sn            14.00   118.71000     Sn( 1.00)

     24 Sym. Ops. (no inversion) found
          (note: 24 additional sym.ops. were found but ignored
           their fractional translations are incommensurate with FFT grid)


   Cartesian axes

     site n.     atom                  positions (alat units)
         1           Sn  tau(   1) = (   0.0000000   0.0000000   0.0000000  )
         2           Sn  tau(   2) = (   0.2500000   0.2500000   0.2500000  )

     number of k points=    60
                       cart. coord. in units 2pi/alat
        k(    1) = (  -0.0625000   0.0625000   0.0625000), wk =   0.0078125
        k(    2) = (  -0.1875000   0.1875000  -0.0625000), wk =   0.0234375
        k(    3) = (  -0.3125000   0.3125000  -0.1875000), wk =   0.0234375
        k(    4) = (  -0.4375000   0.4375000  -0.3125000), wk =   0.0234375
        k(    5) = (   0.4375000  -0.4375000   0.5625000), wk =   0.0234375
        k(    6) = (   0.3125000  -0.3125000   0.4375000), wk =   0.0234375
        k(    7) = (   0.1875000  -0.1875000   0.3125000), wk =   0.0234375
        k(    8) = (   0.0625000  -0.0625000   0.1875000), wk =   0.0234375
        k(    9) = (  -0.0625000   0.3125000   0.0625000), wk =   0.0234375
        k(   10) = (  -0.1875000   0.4375000  -0.0625000), wk =   0.0468750
        k(   11) = (  -0.3125000   0.5625000  -0.1875000), wk =   0.0468750
        k(   12) = (   0.5625000  -0.3125000   0.6875000), wk =   0.0468750
        k(   13) = (   0.4375000  -0.1875000   0.5625000), wk =   0.0468750
        k(   14) = (   0.3125000  -0.0625000   0.4375000), wk =   0.0468750
        k(   15) = (   0.1875000   0.0625000   0.3125000), wk =   0.0468750
        k(   16) = (  -0.0625000   0.5625000   0.0625000), wk =   0.0234375
        k(   17) = (  -0.1875000   0.6875000  -0.0625000), wk =   0.0468750
        k(   18) = (   0.6875000  -0.1875000   0.8125000), wk =   0.0468750
        k(   19) = (   0.5625000  -0.0625000   0.6875000), wk =   0.0468750
        k(   20) = (   0.4375000   0.0625000   0.5625000), wk =   0.0468750
        k(   21) = (   0.3125000   0.1875000   0.4375000), wk =   0.0468750
        k(   22) = (  -0.0625000   0.8125000   0.0625000), wk =   0.0234375
        k(   23) = (   0.8125000  -0.0625000   0.9375000), wk =   0.0468750
        k(   24) = (   0.6875000   0.0625000   0.8125000), wk =   0.0468750
        k(   25) = (   0.5625000   0.1875000   0.6875000), wk =   0.0468750
        k(   26) = (   0.4375000   0.3125000   0.5625000), wk =   0.0468750
        k(   27) = (  -0.0625000  -0.9375000   0.0625000), wk =   0.0234375
        k(   28) = (  -0.1875000  -0.8125000  -0.0625000), wk =   0.0468750
        k(   29) = (  -0.3125000  -0.6875000  -0.1875000), wk =   0.0468750
        k(   30) = (  -0.0625000  -0.6875000   0.0625000), wk =   0.0234375
        k(   31) = (  -0.1875000  -0.5625000  -0.0625000), wk =   0.0468750
        k(   32) = (  -0.0625000  -0.4375000   0.0625000), wk =   0.0234375
        k(   33) = (  -0.1875000   0.1875000   0.1875000), wk =   0.0078125
        k(   34) = (  -0.3125000   0.3125000   0.0625000), wk =   0.0234375
        k(   35) = (  -0.4375000   0.4375000  -0.0625000), wk =   0.0234375
        k(   36) = (   0.4375000  -0.4375000   0.8125000), wk =   0.0234375
        k(   37) = (   0.3125000  -0.3125000   0.6875000), wk =   0.0234375
        k(   38) = (   0.1875000  -0.1875000   0.5625000), wk =   0.0234375
        k(   39) = (  -0.1875000   0.4375000   0.1875000), wk =   0.0234375
        k(   40) = (  -0.3125000   0.5625000   0.0625000), wk =   0.0468750
        k(   41) = (   0.5625000  -0.3125000   0.9375000), wk =   0.0468750
        k(   42) = (   0.4375000  -0.1875000   0.8125000), wk =   0.0468750
        k(   43) = (   0.3125000  -0.0625000   0.6875000), wk =   0.0468750
        k(   44) = (  -0.1875000   0.6875000   0.1875000), wk =   0.0234375
        k(   45) = (   0.6875000  -0.1875000   1.0625000), wk =   0.0468750
        k(   46) = (   0.5625000  -0.0625000   0.9375000), wk =   0.0468750
        k(   47) = (   0.4375000   0.0625000   0.8125000), wk =   0.0468750
        k(   48) = (  -0.1875000  -1.0625000   0.1875000), wk =   0.0234375
        k(   49) = (  -0.3125000  -0.9375000   0.0625000), wk =   0.0468750
        k(   50) = (  -0.1875000  -0.8125000   0.1875000), wk =   0.0234375
        k(   51) = (  -0.3125000   0.3125000   0.3125000), wk =   0.0078125
        k(   52) = (  -0.4375000   0.4375000   0.1875000), wk =   0.0234375
        k(   53) = (   0.4375000  -0.4375000   1.0625000), wk =   0.0234375
        k(   54) = (   0.3125000  -0.3125000   0.9375000), wk =   0.0234375
        k(   55) = (  -0.3125000   0.5625000   0.3125000), wk =   0.0234375
        k(   56) = (   0.5625000  -0.3125000   1.1875000), wk =   0.0468750
        k(   57) = (   0.4375000  -0.1875000   1.0625000), wk =   0.0468750
        k(   58) = (  -0.3125000  -1.1875000   0.3125000), wk =   0.0234375
        k(   59) = (  -0.4375000   0.4375000   0.4375000), wk =   0.0078125
        k(   60) = (   0.4375000  -0.4375000   1.3125000), wk =   0.0234375

     Dense  grid:    27941 G-vectors     FFT dimensions: (  45,  45,  45)

     Smooth grid:     9841 G-vectors     FFT dimensions: (  30,  30,  30)

     Estimated max dynamical RAM per process >       9.27MB

     Estimated total allocated dynamical RAM >      37.10MB

     Check: negative/imaginary core charge=   -0.000001    0.000000

     Initial potential from superposition of free atoms

     starting charge   25.99991, renormalised to   28.00000
     Starting wfc are   18 randomized atomic wfcs

     total cpu time spent up to now is        0.7 secs

     per-process dynamical memory:    14.8 Mb

     Self-consistent Calculation

     iteration #  1     ecut=    28.00 Ry     beta=0.70
     Davidson diagonalization with overlap
     ethr =  1.00E-02,  avg # of iterations =  2.7

     total cpu time spent up to now is        1.8 secs

     total energy              =    -317.37831989 Ry
     Harris-Foulkes estimate   =    -319.43676740 Ry
     estimated scf accuracy    <       2.51252528 Ry

     iteration #  2     ecut=    28.00 Ry     beta=0.70
     Davidson diagonalization with overlap
     ethr =  8.97E-03,  avg # of iterations =  3.0

     total cpu time spent up to now is        3.0 secs

     total energy              =    -318.28543305 Ry
     Harris-Foulkes estimate   =    -318.61030487 Ry
     estimated scf accuracy    <       0.48426959 Ry

     iteration #  3     ecut=    28.00 Ry     beta=0.70
     Davidson diagonalization with overlap
     ethr =  1.73E-03,  avg # of iterations =  2.0

     total cpu time spent up to now is        4.0 secs

     total energy              =    -318.38221830 Ry
     Harris-Foulkes estimate   =    -318.38387940 Ry
     estimated scf accuracy    <       0.00297772 Ry

     iteration #  4     ecut=    28.00 Ry     beta=0.70
     Davidson diagonalization with overlap
     ethr =  1.06E-05,  avg # of iterations =  3.1

     total cpu time spent up to now is        5.2 secs

     total energy              =    -318.38311894 Ry
     Harris-Foulkes estimate   =    -318.38325657 Ry
     estimated scf accuracy    <       0.00019634 Ry

     iteration #  5     ecut=    28.00 Ry     beta=0.70
     Davidson diagonalization with overlap
     ethr =  7.01E-07,  avg # of iterations =  3.0

     total cpu time spent up to now is        6.3 secs

     total energy              =    -318.38318092 Ry
     Harris-Foulkes estimate   =    -318.38318333 Ry
     estimated scf accuracy    <       0.00000395 Ry

     iteration #  6     ecut=    28.00 Ry     beta=0.70
     Davidson diagonalization with overlap
     ethr =  1.41E-08,  avg # of iterations =  3.5

     total cpu time spent up to now is        7.5 secs

     total energy              =    -318.38318232 Ry
     Harris-Foulkes estimate   =    -318.38318236 Ry
     estimated scf accuracy    <       0.00000006 Ry

     iteration #  7     ecut=    28.00 Ry     beta=0.70
     Davidson diagonalization with overlap
     ethr =  2.25E-10,  avg # of iterations =  3.4

     total cpu time spent up to now is        8.7 secs

     End of self-consistent calculation

          k =-0.0625 0.0625 0.0625 (  1243 PWs)   bands (ev):

   -14.5421 -14.5421 -14.5384 -14.4750 -14.4750 -14.2290 -14.2290 -14.2071
   -14.1998 -14.1998  -3.1572   5.3892   6.9654   6.9654

          k =-0.1875 0.1875-0.0625 (  1255 PWs)   bands (ev):

   -14.5528 -14.5492 -14.5392 -14.4651 -14.4597 -14.2518 -14.2461 -14.2168
   -14.1970 -14.1845  -2.9719   4.2225   6.2857   6.8276

          k =-0.3125 0.3125-0.1875 (  1244 PWs)   bands (ev):

   -14.5625 -14.5586 -14.5188 -14.4411 -14.4343 -14.2738 -14.2607 -14.2284
   -14.1776 -14.1699  -2.5316   2.6572   5.7919   6.4050

          k =-0.4375 0.4375-0.3125 (  1237 PWs)   bands (ev):

   -14.5666 -14.5654 -14.5050 -14.4294 -14.4227 -14.2751 -14.2684 -14.2434
   -14.1632 -14.1629  -1.9507   1.3570   5.5454   6.0460

          k = 0.4375-0.4375 0.5625 (  1227 PWs)   bands (ev):

   -14.5678 -14.5642 -14.4927 -14.4206 -14.4180 -14.2777 -14.2753 -14.2433
   -14.1590 -14.1558  -1.6934   0.9136   5.5449   5.8724

          k = 0.3125-0.3125 0.4375 (  1249 PWs)   bands (ev):

   -14.5683 -14.5624 -14.5130 -14.4326 -14.4260 -14.2818 -14.2683 -14.2434
   -14.1742 -14.1665  -2.1427   1.7321   5.7744   5.9223

          k = 0.1875-0.1875 0.3125 (  1255 PWs)   bands (ev):

   -14.5629 -14.5578 -14.5282 -14.4523 -14.4422 -14.2738 -14.2530 -14.2235
   -14.1878 -14.1759  -2.7026   3.1723   6.1915   6.1929

          k = 0.0625-0.0625 0.1875 (  1254 PWs)   bands (ev):

   -14.5486 -14.5482 -14.5425 -14.4715 -14.4662 -14.2505 -14.2325 -14.2110
   -14.2008 -14.1901  -3.0638   4.7344   6.6201   6.6527

          k =-0.0625 0.3125 0.0625 (  1256 PWs)   bands (ev):

   -14.5546 -14.5520 -14.5417 -14.4640 -14.4430 -14.2771 -14.2407 -14.2063
   -14.1991 -14.1839  -2.8780   3.9332   6.1500   6.1654

          k =-0.1875 0.4375-0.0625 (  1249 PWs)   bands (ev):

   -14.5656 -14.5604 -14.5258 -14.4463 -14.4193 -14.3002 -14.2545 -14.2181
   -14.1804 -14.1690  -2.5174   2.8280   5.3793   5.9270

          k =-0.3125 0.5625-0.1875 (  1245 PWs)   bands (ev):

   -14.5779 -14.5683 -14.4962 -14.4263 -14.4045 -14.3164 -14.2750 -14.2460
   -14.1620 -14.1519  -1.9560   1.5891   4.8712   5.6269

          k = 0.5625-0.3125 0.6875 (  1234 PWs)   bands (ev):

   -14.5824 -14.5701 -14.4754 -14.4106 -14.4006 -14.3056 -14.2890 -14.2614
   -14.1549 -14.1430  -1.4994   0.8290   4.6096   5.5601

          k = 0.4375-0.1875 0.5625 (  1240 PWs)   bands (ev):

   -14.5811 -14.5704 -14.4834 -14.4242 -14.4020 -14.3016 -14.2787 -14.2627
   -14.1577 -14.1481  -1.7677   1.2549   4.6136   5.7670

          k = 0.3125-0.0625 0.4375 (  1247 PWs)   bands (ev):

   -14.5704 -14.5682 -14.5105 -14.4410 -14.4162 -14.2941 -14.2636 -14.2369
   -14.1697 -14.1615  -2.3518   2.3971   4.9706   6.1545

          k = 0.1875 0.0625 0.3125 (  1256 PWs)   bands (ev):

   -14.5610 -14.5560 -14.5331 -14.4582 -14.4432 -14.2750 -14.2491 -14.2176
   -14.1918 -14.1766  -2.7891   3.5453   5.8247   6.4473

          k =-0.0625 0.5625 0.0625 (  1256 PWs)   bands (ev):

   -14.5673 -14.5651 -14.5296 -14.4343 -14.3946 -14.3434 -14.2668 -14.2118
   -14.1745 -14.1697  -2.2364   2.2905   5.2613   5.3493

          k =-0.1875 0.6875-0.0625 (  1247 PWs)   bands (ev):

   -14.5775 -14.5712 -14.5000 -14.4101 -14.3701 -14.3637 -14.2875 -14.2388
   -14.1575 -14.1534  -1.7226   1.3831   4.6972   5.0878

          k = 0.6875-0.1875 0.8125 (  1235 PWs)   bands (ev):

   -14.5893 -14.5730 -14.4649 -14.3866 -14.3700 -14.3531 -14.3126 -14.2674
   -14.1479 -14.1297  -1.1498   0.5843   4.1211   5.0569

          k = 0.5625-0.0625 0.6875 (  1235 PWs)   bands (ev):

   -14.5943 -14.5766 -14.4580 -14.3901 -14.3703 -14.3337 -14.3155 -14.2793
   -14.1466 -14.1285  -1.2139   0.6660   3.9085   5.3098

          k = 0.4375 0.0625 0.5625 (  1241 PWs)   bands (ev):

   -14.5836 -14.5747 -14.4750 -14.4246 -14.3942 -14.3130 -14.2758 -14.2711
   -14.1547 -14.1450  -1.7960   1.4218   4.2882   5.7435

          k = 0.3125 0.1875 0.4375 (  1248 PWs)   bands (ev):

   -14.5705 -14.5639 -14.5109 -14.4376 -14.4209 -14.2892 -14.2651 -14.2396
   -14.1735 -14.1631  -2.2803   2.1181   5.3357   6.0610

          k =-0.0625 0.8125 0.0625 (  1240 PWs)   bands (ev):

   -14.5707 -14.5703 -14.4924 -14.4103 -14.3881 -14.3294 -14.3049 -14.2482
   -14.1484 -14.1459  -1.2587   0.7290   4.7293   4.8544

          k = 0.8125-0.0625 0.9375 (  1234 PWs)   bands (ev):

   -14.5787 -14.5715 -14.4600 -14.4279 -14.3577 -14.3317 -14.3072 -14.2783
   -14.1439 -14.1333  -0.6398   0.0113   4.3877   4.7061

          k = 0.6875 0.0625 0.8125 (  1238 PWs)   bands (ev):

   -14.5919 -14.5745 -14.4568 -14.3817 -14.3639 -14.3417 -14.3311 -14.2839
   -14.1462 -14.1292  -0.7716   0.1759   3.9456   4.9446

          k = 0.5625 0.1875 0.6875 (  1237 PWs)   bands (ev):

   -14.5906 -14.5744 -14.4668 -14.3996 -14.3846 -14.3192 -14.3057 -14.2737
   -14.1498 -14.1351  -1.3158   0.7088   4.1680   5.3934

          k = 0.4375 0.3125 0.5625 (  1235 PWs)   bands (ev):

   -14.5741 -14.5679 -14.4900 -14.4228 -14.4129 -14.2889 -14.2743 -14.2524
   -14.1592 -14.1537  -1.7253   1.0472   5.1145   5.8072

          k =-0.0625-0.9375 0.0625 (  1243 PWs)   bands (ev):

   -14.5703 -14.5690 -14.4717 -14.4443 -14.3610 -14.3315 -14.3044 -14.2771
   -14.1438 -14.1418  -0.6582   0.0092   4.6205   4.7527

          k =-0.1875-0.8125-0.0625 (  1237 PWs)   bands (ev):

   -14.5778 -14.5730 -14.4801 -14.3994 -14.3852 -14.3334 -14.3081 -14.2542
   -14.1473 -14.1415  -1.2116   0.6803   4.4920   4.8342

          k =-0.3125-0.6875-0.1875 (  1242 PWs)   bands (ev):

   -14.5844 -14.5710 -14.4812 -14.4092 -14.3846 -14.3403 -14.2916 -14.2548
   -14.1562 -14.1421  -1.5711   1.0759   4.4463   5.2839

          k =-0.0625-0.6875 0.0625 (  1246 PWs)   bands (ev):

   -14.5706 -14.5677 -14.5137 -14.4086 -14.3784 -14.3622 -14.2833 -14.2283
   -14.1594 -14.1554  -1.7871   1.4933   4.9445   5.0552

          k =-0.1875-0.5625-0.0625 (  1249 PWs)   bands (ev):

   -14.5730 -14.5676 -14.5159 -14.4291 -14.3964 -14.3362 -14.2682 -14.2244
   -14.1670 -14.1595  -2.1603   2.1029   4.9965   5.4586

          k =-0.0625-0.4375 0.0625 (  1254 PWs)   bands (ev):

   -14.5609 -14.5601 -14.5376 -14.4528 -14.4183 -14.3070 -14.2507 -14.2033
   -14.1859 -14.1766  -2.6012   3.1086   5.6697   5.7262

          k =-0.1875 0.1875 0.1875 (  1248 PWs)   bands (ev):

   -14.5533 -14.5533 -14.5322 -14.4579 -14.4579 -14.2498 -14.2498 -14.2208
   -14.1828 -14.1828  -2.8817   3.7738   6.5682   6.5682

          k =-0.3125 0.3125 0.0625 (  1247 PWs)   bands (ev):

   -14.5629 -14.5598 -14.5202 -14.4493 -14.4310 -14.2757 -14.2611 -14.2283
   -14.1791 -14.1675  -2.6127   2.9941   5.3864   6.5364

          k =-0.4375 0.4375-0.0625 (  1242 PWs)   bands (ev):

   -14.5777 -14.5703 -14.4906 -14.4372 -14.4080 -14.2908 -14.2700 -14.2584
   -14.1570 -14.1561  -2.1089   1.9141   4.5887   6.1177

          k = 0.4375-0.4375 0.8125 (  1238 PWs)   bands (ev):

   -14.5853 -14.5706 -14.4735 -14.4129 -14.3983 -14.2965 -14.2955 -14.2714
   -14.1573 -14.1417  -1.5445   0.9518   4.3618   5.6963

          k = 0.3125-0.3125 0.6875 (  1235 PWs)   bands (ev):

   -14.5857 -14.5659 -14.4811 -14.4063 -14.3982 -14.3215 -14.2867 -14.2530
   -14.1555 -14.1421  -1.5301   0.9290   4.5404   5.4595

          k = 0.1875-0.1875 0.5625 (  1257 PWs)   bands (ev):

   -14.5781 -14.5660 -14.5129 -14.4291 -14.4026 -14.3325 -14.2710 -14.2328
   -14.1712 -14.1625  -2.0905   1.9011   5.0265   5.4690

          k =-0.1875 0.4375 0.1875 (  1243 PWs)   bands (ev):

   -14.5680 -14.5585 -14.5204 -14.4424 -14.4209 -14.2927 -14.2568 -14.2206
   -14.1785 -14.1635  -2.4373   2.5386   5.5828   5.8089

          k =-0.3125 0.5625 0.0625 (  1250 PWs)   bands (ev):

   -14.5791 -14.5730 -14.4958 -14.4272 -14.3981 -14.3268 -14.2722 -14.2486
   -14.1609 -14.1564  -2.0113   1.7907   4.6274   5.6300

          k = 0.5625-0.3125 0.9375 (  1236 PWs)   bands (ev):

   -14.5892 -14.5765 -14.4606 -14.4066 -14.3720 -14.3404 -14.2950 -14.2731
   -14.1493 -14.1350  -1.4240   0.9345   4.0952   5.2412

          k = 0.4375-0.1875 0.8125 (  1234 PWs)   bands (ev):

   -14.5924 -14.5751 -14.4536 -14.3930 -14.3674 -14.3441 -14.3135 -14.2765
   -14.1433 -14.1323  -1.1221   0.5414   4.0572   5.0271

          k = 0.3125-0.0625 0.6875 (  1239 PWs)   bands (ev):

   -14.5823 -14.5741 -14.4773 -14.4081 -14.3715 -14.3545 -14.2878 -14.2569
   -14.1516 -14.1430  -1.5984   1.1851   4.3785   5.1471

          k =-0.1875 0.6875 0.1875 (  1246 PWs)   bands (ev):

   -14.5816 -14.5712 -14.4931 -14.4102 -14.3746 -14.3583 -14.2887 -14.2453
   -14.1587 -14.1446  -1.6694   1.2662   4.5796   5.1989

          k = 0.6875-0.1875 1.0625 (  1233 PWs)   bands (ev):

   -14.5841 -14.5774 -14.4595 -14.3844 -14.3819 -14.3428 -14.3114 -14.2704
   -14.1428 -14.1341  -1.1240   0.5861   4.2318   4.7758

          k = 0.5625-0.0625 0.9375 (  1231 PWs)   bands (ev):

   -14.5902 -14.5833 -14.4257 -14.3883 -14.3653 -14.3410 -14.3271 -14.2974
   -14.1355 -14.1300  -0.5924   0.0139   4.0594   4.4562

          k = 0.4375 0.0625 0.8125 (  1228 PWs)   bands (ev):

   -14.5892 -14.5805 -14.4413 -14.3864 -14.3643 -14.3473 -14.3164 -14.2812
   -14.1397 -14.1285  -1.0091   0.4568   4.0235   4.7783

          k =-0.1875-1.0625 0.1875 (  1242 PWs)   bands (ev):

   -14.5872 -14.5727 -14.4619 -14.4102 -14.3615 -14.3340 -14.3236 -14.2841
   -14.1445 -14.1325  -0.6860   0.0698   4.1122   4.9181

          k =-0.3125-0.9375 0.0625 (  1238 PWs)   bands (ev):

   -14.5868 -14.5793 -14.4449 -14.4081 -14.3611 -14.3361 -14.3213 -14.2922
   -14.1385 -14.1329  -0.6126   0.0133   4.1770   4.5638

          k =-0.1875-0.8125 0.1875 (  1234 PWs)   bands (ev):

   -14.5836 -14.5694 -14.4735 -14.3866 -14.3842 -14.3442 -14.3098 -14.2576
   -14.1489 -14.1337  -1.1868   0.6418   4.2699   5.0129

          k =-0.3125 0.3125 0.3125 (  1248 PWs)   bands (ev):

   -14.5644 -14.5644 -14.5187 -14.4320 -14.4320 -14.2706 -14.2706 -14.2395
   -14.1713 -14.1713  -2.3726   2.1965   6.1824   6.1824

          k =-0.4375 0.4375 0.1875 (  1248 PWs)   bands (ev):

   -14.5750 -14.5708 -14.4980 -14.4334 -14.4134 -14.2868 -14.2734 -14.2578
   -14.1626 -14.1611  -2.0531   1.6753   4.9692   6.0951

          k = 0.4375-0.4375 1.0625 (  1233 PWs)   bands (ev):

   -14.5890 -14.5730 -14.4646 -14.4100 -14.3856 -14.3074 -14.2997 -14.2740
   -14.1504 -14.1343  -1.5251   1.0396   4.0380   5.6529

          k = 0.3125-0.3125 0.9375 (  1230 PWs)   bands (ev):

   -14.5942 -14.5723 -14.4607 -14.3663 -14.3659 -14.3497 -14.3219 -14.2790
   -14.1438 -14.1252  -0.9879   0.4061   3.8531   5.2312

          k =-0.3125 0.5625 0.3125 (  1236 PWs)   bands (ev):

   -14.5767 -14.5662 -14.4954 -14.4208 -14.4125 -14.3007 -14.2724 -14.2438
   -14.1615 -14.1496  -1.8544   1.3053   5.1272   5.6707

          k = 0.5625-0.3125 1.1875 (  1234 PWs)   bands (ev):

   -14.5870 -14.5736 -14.4660 -14.4079 -14.3846 -14.3251 -14.2953 -14.2661
   -14.1501 -14.1369  -1.4446   0.8727   4.3012   5.3527

          k = 0.4375-0.1875 1.0625 (  1237 PWs)   bands (ev):

   -14.5938 -14.5805 -14.4460 -14.3797 -14.3604 -14.3509 -14.3296 -14.2855
   -14.1442 -14.1285  -0.8850   0.3121   3.9179   4.8563

          k =-0.3125-1.1875 0.3125 (  1236 PWs)   bands (ev):

   -14.5900 -14.5731 -14.4670 -14.3853 -14.3809 -14.3385 -14.3062 -14.2713
   -14.1514 -14.1332  -1.2123   0.6139   4.0952   5.3090

          k =-0.4375 0.4375 0.4375 (  1239 PWs)   bands (ev):

   -14.5661 -14.5661 -14.5020 -14.4267 -14.4267 -14.2747 -14.2747 -14.2409
   -14.1649 -14.1649  -1.8211   1.0814   5.9688   5.9688

          k = 0.4375-0.4375 1.3125 (  1223 PWs)   bands (ev):

   -14.5756 -14.5646 -14.4790 -14.4167 -14.4074 -14.2835 -14.2800 -14.2563
   -14.1530 -14.1466  -1.5972   0.8795   4.9058   5.7749

     highest occupied level (ev):     6.9654

!    total energy              =    -318.38318234 Ry
     Harris-Foulkes estimate   =    -318.38318235 Ry
     estimated scf accuracy    <          7.2E-09 Ry

     The total energy is the sum of the following terms:

     one-electron contribution =    -161.88496698 Ry
     hartree contribution      =      97.54186892 Ry
     xc contribution           =     -85.98398927 Ry
     ewald contribution        =    -168.05609501 Ry

     convergence has been achieved in   7 iterations


     Computing stress (Cartesian axis) and pressure

          total   stress  (Ry/bohr**3)                   (kbar)     P= -149.88
  -0.00101888  -0.00000000   0.00000000       -149.88     -0.00      0.00
   0.00000000  -0.00101888   0.00000000          0.00   -149.88      0.00
  -0.00000000   0.00000000  -0.00101888         -0.00      0.00   -149.88


     Writing output data file sn.alpha.28.save

     init_run     :      0.58s CPU      0.61s WALL (       1 calls)
     electrons    :      7.68s CPU      8.04s WALL (       1 calls)
     stress       :      0.41s CPU      0.42s WALL (       1 calls)

     Called by init_run:
     wfcinit      :      0.32s CPU      0.34s WALL (       1 calls)
     potinit      :      0.03s CPU      0.03s WALL (       1 calls)

     Called by electrons:
     c_bands      :      6.26s CPU      6.53s WALL (       7 calls)
     sum_band     :      1.08s CPU      1.14s WALL (       7 calls)
     v_of_rho     :      0.15s CPU      0.15s WALL (       8 calls)
     newd         :      0.22s CPU      0.22s WALL (       8 calls)
     mix_rho      :      0.01s CPU      0.01s WALL (       7 calls)

     Called by c_bands:
     init_us_2    :      0.15s CPU      0.15s WALL (     960 calls)
     cegterg      :      5.96s CPU      6.23s WALL (     420 calls)

     Called by sum_band:
     sum_band:bec :      0.00s CPU      0.00s WALL (     420 calls)
     addusdens    :      0.24s CPU      0.26s WALL (       7 calls)

     Called by *egterg:
     h_psi        :      4.87s CPU      5.09s WALL (    1718 calls)
     s_psi        :      0.10s CPU      0.10s WALL (    1718 calls)
     g_psi        :      0.03s CPU      0.03s WALL (    1238 calls)
     cdiaghg      :      0.70s CPU      0.73s WALL (    1658 calls)

     Called by h_psi:
     h_psi:pot    :      4.84s CPU      5.05s WALL (    1718 calls)
     h_psi:calbec :      0.15s CPU      0.14s WALL (    1718 calls)
     vloc_psi     :      4.59s CPU      4.80s WALL (    1718 calls)
     add_vuspsi   :      0.10s CPU      0.10s WALL (    1718 calls)

     General routines
     calbec       :      0.20s CPU      0.19s WALL (    2198 calls)
     fft          :      0.08s CPU      0.08s WALL (     138 calls)
     ffts         :      0.00s CPU      0.00s WALL (      15 calls)
     fftw         :      4.60s CPU      4.75s WALL (   45754 calls)
     interpolate  :      0.01s CPU      0.01s WALL (      15 calls)
     davcio       :      0.00s CPU      0.00s WALL (      60 calls)

     Parallel routines
     fft_scatter  :      0.60s CPU      0.84s WALL (   45907 calls)

     PWSCF        :     8.82s CPU        10.05s WALL


   This run was terminated on:  12:59: 9  12Nov2017            

=------------------------------------------------------------------------------=
   JOB DONE.
=------------------------------------------------------------------------------=
