
     Program PWSCF v.6.1 (svn rev. 13369) starts on 11Nov2017 at 16:11:55 

     This program is part of the open-source Quantum ESPRESSO suite
     for quantum simulation of materials; please cite
         "P. Giannozzi et al., J. Phys.:Condens. Matter 21 395502 (2009);
          URL http://www.quantum-espresso.org", 
     in publications or presentations arising from this work. More details at
     http://www.quantum-espresso.org/quote

     Parallel version (MPI), running on     4 processors
     R & G space division:  proc/nbgrp/npool/nimage =       4
     Waiting for input...
     Reading input from standard input
     Message from routine read_cards :
     DEPRECATED: no units specified in ATOMIC_POSITIONS card
     Message from routine read_cards :
     ATOMIC_POSITIONS: units set to alat

     Current dimensions of program PWSCF are:
     Max number of different atomic species (ntypx) = 10
     Max number of k-points (npk) =  40000
     Max angular momentum in pseudopotentials (lmaxx) =  3

     Subspace diagonalization in iterative solution of the eigenvalue problem:
     a serial algorithm will be used


     Parallelization info
     --------------------
     sticks:   dense  smooth     PW     G-vecs:    dense   smooth      PW
     Min         540     267     78                16574     5875     958
     Max         541     268     79                16577     5880     963
     Sum        2161    1069    313                66299    23505    3839



     bravais-lattice index     =            2
     lattice parameter (alat)  =      12.5300  a.u.
     unit-cell volume          =     491.8053 (a.u.)^3
     number of atoms/cell      =            2
     number of atomic types    =            1
     number of electrons       =        28.00
     number of Kohn-Sham states=           14
     kinetic-energy cutoff     =      50.0000  Ry
     charge density cutoff     =     400.0000  Ry
     convergence threshold     =      1.0E-08
     mixing beta               =       0.7000
     number of iterations used =            8  plain     mixing
     Exchange-correlation      =  SLA  PW   PBX  PBC ( 1  4  3  4 0 0)

     celldm(1)=  12.530000  celldm(2)=   0.000000  celldm(3)=   0.000000
     celldm(4)=   0.000000  celldm(5)=   0.000000  celldm(6)=   0.000000

     crystal axes: (cart. coord. in units of alat)
               a(1) = (  -0.500000   0.000000   0.500000 )  
               a(2) = (   0.000000   0.500000   0.500000 )  
               a(3) = (  -0.500000   0.500000   0.000000 )  

     reciprocal axes: (cart. coord. in units 2 pi/alat)
               b(1) = ( -1.000000 -1.000000  1.000000 )  
               b(2) = (  1.000000  1.000000  1.000000 )  
               b(3) = ( -1.000000  1.000000 -1.000000 )  


     PseudoPot. # 1 for Sn read from file:
     /home/s1333534/quantum_espresso/qe-6.1/pseudo/sn_pbe_v1.4.uspp.F.UPF
     MD5 check sum: 469debedee59599fedebd795477fea03
     Pseudo is Ultrasoft + core correction, Zval = 14.0
     Generated by new atomic code, or converted to UPF format
     Using radial grid of  891 points,  6 beta functions with: 
                l(1) =   0
                l(2) =   0
                l(3) =   1
                l(4) =   1
                l(5) =   2
                l(6) =   2
     Q(r) pseudized with  8 coefficients,  rinner =    1.350   1.350   1.350
                                                       1.350   1.350

     atomic species   valence    mass     pseudopotential
        Sn            14.00   118.71000     Sn( 1.00)

     48 Sym. Ops., with inversion, found (24 have fractional translation)



   Cartesian axes

     site n.     atom                  positions (alat units)
         1           Sn  tau(   1) = (   0.0000000   0.0000000   0.0000000  )
         2           Sn  tau(   2) = (   0.2500000   0.2500000   0.2500000  )

     number of k points=    60
                       cart. coord. in units 2pi/alat
        k(    1) = (  -0.0625000   0.0625000   0.0625000), wk =   0.0078125
        k(    2) = (  -0.1875000   0.1875000  -0.0625000), wk =   0.0234375
        k(    3) = (  -0.3125000   0.3125000  -0.1875000), wk =   0.0234375
        k(    4) = (  -0.4375000   0.4375000  -0.3125000), wk =   0.0234375
        k(    5) = (   0.4375000  -0.4375000   0.5625000), wk =   0.0234375
        k(    6) = (   0.3125000  -0.3125000   0.4375000), wk =   0.0234375
        k(    7) = (   0.1875000  -0.1875000   0.3125000), wk =   0.0234375
        k(    8) = (   0.0625000  -0.0625000   0.1875000), wk =   0.0234375
        k(    9) = (  -0.0625000   0.3125000   0.0625000), wk =   0.0234375
        k(   10) = (  -0.1875000   0.4375000  -0.0625000), wk =   0.0468750
        k(   11) = (  -0.3125000   0.5625000  -0.1875000), wk =   0.0468750
        k(   12) = (   0.5625000  -0.3125000   0.6875000), wk =   0.0468750
        k(   13) = (   0.4375000  -0.1875000   0.5625000), wk =   0.0468750
        k(   14) = (   0.3125000  -0.0625000   0.4375000), wk =   0.0468750
        k(   15) = (   0.1875000   0.0625000   0.3125000), wk =   0.0468750
        k(   16) = (  -0.0625000   0.5625000   0.0625000), wk =   0.0234375
        k(   17) = (  -0.1875000   0.6875000  -0.0625000), wk =   0.0468750
        k(   18) = (   0.6875000  -0.1875000   0.8125000), wk =   0.0468750
        k(   19) = (   0.5625000  -0.0625000   0.6875000), wk =   0.0468750
        k(   20) = (   0.4375000   0.0625000   0.5625000), wk =   0.0468750
        k(   21) = (   0.3125000   0.1875000   0.4375000), wk =   0.0468750
        k(   22) = (  -0.0625000   0.8125000   0.0625000), wk =   0.0234375
        k(   23) = (   0.8125000  -0.0625000   0.9375000), wk =   0.0468750
        k(   24) = (   0.6875000   0.0625000   0.8125000), wk =   0.0468750
        k(   25) = (   0.5625000   0.1875000   0.6875000), wk =   0.0468750
        k(   26) = (   0.4375000   0.3125000   0.5625000), wk =   0.0468750
        k(   27) = (  -0.0625000  -0.9375000   0.0625000), wk =   0.0234375
        k(   28) = (  -0.1875000  -0.8125000  -0.0625000), wk =   0.0468750
        k(   29) = (  -0.3125000  -0.6875000  -0.1875000), wk =   0.0468750
        k(   30) = (  -0.0625000  -0.6875000   0.0625000), wk =   0.0234375
        k(   31) = (  -0.1875000  -0.5625000  -0.0625000), wk =   0.0468750
        k(   32) = (  -0.0625000  -0.4375000   0.0625000), wk =   0.0234375
        k(   33) = (  -0.1875000   0.1875000   0.1875000), wk =   0.0078125
        k(   34) = (  -0.3125000   0.3125000   0.0625000), wk =   0.0234375
        k(   35) = (  -0.4375000   0.4375000  -0.0625000), wk =   0.0234375
        k(   36) = (   0.4375000  -0.4375000   0.8125000), wk =   0.0234375
        k(   37) = (   0.3125000  -0.3125000   0.6875000), wk =   0.0234375
        k(   38) = (   0.1875000  -0.1875000   0.5625000), wk =   0.0234375
        k(   39) = (  -0.1875000   0.4375000   0.1875000), wk =   0.0234375
        k(   40) = (  -0.3125000   0.5625000   0.0625000), wk =   0.0468750
        k(   41) = (   0.5625000  -0.3125000   0.9375000), wk =   0.0468750
        k(   42) = (   0.4375000  -0.1875000   0.8125000), wk =   0.0468750
        k(   43) = (   0.3125000  -0.0625000   0.6875000), wk =   0.0468750
        k(   44) = (  -0.1875000   0.6875000   0.1875000), wk =   0.0234375
        k(   45) = (   0.6875000  -0.1875000   1.0625000), wk =   0.0468750
        k(   46) = (   0.5625000  -0.0625000   0.9375000), wk =   0.0468750
        k(   47) = (   0.4375000   0.0625000   0.8125000), wk =   0.0468750
        k(   48) = (  -0.1875000  -1.0625000   0.1875000), wk =   0.0234375
        k(   49) = (  -0.3125000  -0.9375000   0.0625000), wk =   0.0468750
        k(   50) = (  -0.1875000  -0.8125000   0.1875000), wk =   0.0234375
        k(   51) = (  -0.3125000   0.3125000   0.3125000), wk =   0.0078125
        k(   52) = (  -0.4375000   0.4375000   0.1875000), wk =   0.0234375
        k(   53) = (   0.4375000  -0.4375000   1.0625000), wk =   0.0234375
        k(   54) = (   0.3125000  -0.3125000   0.9375000), wk =   0.0234375
        k(   55) = (  -0.3125000   0.5625000   0.3125000), wk =   0.0234375
        k(   56) = (   0.5625000  -0.3125000   1.1875000), wk =   0.0468750
        k(   57) = (   0.4375000  -0.1875000   1.0625000), wk =   0.0468750
        k(   58) = (  -0.3125000  -1.1875000   0.3125000), wk =   0.0234375
        k(   59) = (  -0.4375000   0.4375000   0.4375000), wk =   0.0078125
        k(   60) = (   0.4375000  -0.4375000   1.3125000), wk =   0.0234375

     Dense  grid:    66299 G-vectors     FFT dimensions: (  60,  60,  60)

     Smooth grid:    23505 G-vectors     FFT dimensions: (  40,  40,  40)

     Estimated max dynamical RAM per process >      21.59MB

     Estimated total allocated dynamical RAM >      86.36MB

     Initial potential from superposition of free atoms

     starting charge   25.99991, renormalised to   28.00000
     Starting wfc are   18 randomized atomic wfcs

     total cpu time spent up to now is        1.3 secs

     per-process dynamical memory:    25.7 Mb

     Self-consistent Calculation

     iteration #  1     ecut=    50.00 Ry     beta=0.70
     Davidson diagonalization with overlap
     ethr =  1.00E-02,  avg # of iterations =  2.7

     total cpu time spent up to now is        3.8 secs

     total energy              =    -317.48610602 Ry
     Harris-Foulkes estimate   =    -319.54710281 Ry
     estimated scf accuracy    <       2.51113651 Ry

     iteration #  2     ecut=    50.00 Ry     beta=0.70
     Davidson diagonalization with overlap
     ethr =  8.97E-03,  avg # of iterations =  3.0

     total cpu time spent up to now is        6.5 secs

     total energy              =    -318.39377091 Ry
     Harris-Foulkes estimate   =    -318.71189167 Ry
     estimated scf accuracy    <       0.47380627 Ry

     iteration #  3     ecut=    50.00 Ry     beta=0.70
     Davidson diagonalization with overlap
     ethr =  1.69E-03,  avg # of iterations =  2.0

     total cpu time spent up to now is        8.9 secs

     total energy              =    -318.48881454 Ry
     Harris-Foulkes estimate   =    -318.49038644 Ry
     estimated scf accuracy    <       0.00288264 Ry

     iteration #  4     ecut=    50.00 Ry     beta=0.70
     Davidson diagonalization with overlap
     ethr =  1.03E-05,  avg # of iterations =  3.0

     total cpu time spent up to now is       11.5 secs

     total energy              =    -318.48970172 Ry
     Harris-Foulkes estimate   =    -318.48981982 Ry
     estimated scf accuracy    <       0.00017506 Ry

     iteration #  5     ecut=    50.00 Ry     beta=0.70
     Davidson diagonalization with overlap
     ethr =  6.25E-07,  avg # of iterations =  3.0

     total cpu time spent up to now is       14.1 secs

     total energy              =    -318.48975529 Ry
     Harris-Foulkes estimate   =    -318.48975603 Ry
     estimated scf accuracy    <       0.00000152 Ry

     iteration #  6     ecut=    50.00 Ry     beta=0.70
     Davidson diagonalization with overlap
     ethr =  5.41E-09,  avg # of iterations =  3.9

     total cpu time spent up to now is       16.9 secs

     total energy              =    -318.48975606 Ry
     Harris-Foulkes estimate   =    -318.48975611 Ry
     estimated scf accuracy    <       0.00000007 Ry

     iteration #  7     ecut=    50.00 Ry     beta=0.70
     Davidson diagonalization with overlap
     ethr =  2.65E-10,  avg # of iterations =  3.2

     total cpu time spent up to now is       19.5 secs

     End of self-consistent calculation

          k =-0.0625 0.0625 0.0625 (  2918 PWs)   bands (ev):

   -14.5297 -14.5297 -14.5264 -14.4740 -14.4740 -14.2278 -14.2278 -14.2187
   -14.2060 -14.2060  -3.1008   5.5421   7.0653   7.0653

          k =-0.1875 0.1875-0.0625 (  2917 PWs)   bands (ev):

   -14.5423 -14.5372 -14.5231 -14.4627 -14.4555 -14.2513 -14.2417 -14.2159
   -14.2005 -14.1876  -2.9138   4.3489   6.3768   6.9265

          k =-0.3125 0.3125-0.1875 (  2918 PWs)   bands (ev):

   -14.5539 -14.5507 -14.5119 -14.4444 -14.4345 -14.2699 -14.2579 -14.2318
   -14.1830 -14.1752  -2.4693   2.7604   5.8807   6.4993

          k =-0.4375 0.4375-0.3125 (  2934 PWs)   bands (ev):

   -14.5594 -14.5594 -14.5014 -14.4313 -14.4239 -14.2775 -14.2679 -14.2477
   -14.1722 -14.1703  -1.8819   1.4440   5.6340   6.1368

          k = 0.4375-0.4375 0.5625 (  2936 PWs)   bands (ev):

   -14.5629 -14.5586 -14.4983 -14.4251 -14.4243 -14.2764 -14.2741 -14.2508
   -14.1718 -14.1678  -1.6212   0.9947   5.6345   5.9614

          k = 0.3125-0.3125 0.4375 (  2938 PWs)   bands (ev):

   -14.5603 -14.5547 -14.5057 -14.4345 -14.4257 -14.2798 -14.2640 -14.2406
   -14.1778 -14.1697  -2.0762   1.8238   5.8662   6.0111

          k = 0.1875-0.1875 0.3125 (  2924 PWs)   bands (ev):

   -14.5508 -14.5457 -14.5175 -14.4507 -14.4394 -14.2701 -14.2485 -14.2253
   -14.1884 -14.1791  -2.6420   3.2824   6.2836   6.2862

          k = 0.0625-0.0625 0.1875 (  2912 PWs)   bands (ev):

   -14.5360 -14.5335 -14.5271 -14.4695 -14.4608 -14.2493 -14.2278 -14.2147
   -14.2052 -14.1941  -3.0066   4.8714   6.7152   6.7498

          k =-0.0625 0.3125 0.0625 (  2918 PWs)   bands (ev):

   -14.5430 -14.5396 -14.5288 -14.4603 -14.4398 -14.2769 -14.2335 -14.2076
   -14.1999 -14.1872  -2.8191   4.0592   6.2405   6.2551

          k =-0.1875 0.4375-0.0625 (  2923 PWs)   bands (ev):

   -14.5562 -14.5511 -14.5159 -14.4440 -14.4157 -14.3026 -14.2507 -14.2184
   -14.1849 -14.1740  -2.4551   2.9397   5.4607   6.0161

          k =-0.3125 0.5625-0.1875 (  2943 PWs)   bands (ev):

   -14.5708 -14.5601 -14.4937 -14.4261 -14.4017 -14.3137 -14.2702 -14.2449
   -14.1715 -14.1592  -1.8879   1.6844   4.9509   5.7125

          k = 0.5625-0.3125 0.6875 (  2934 PWs)   bands (ev):

   -14.5773 -14.5644 -14.4777 -14.4124 -14.4049 -14.3041 -14.2877 -14.2634
   -14.1648 -14.1519  -1.4255   0.9140   4.6880   5.6448

          k = 0.4375-0.1875 0.5625 (  2948 PWs)   bands (ev):

   -14.5739 -14.5649 -14.4812 -14.4238 -14.4037 -14.3033 -14.2747 -14.2649
   -14.1645 -14.1569  -1.6973   1.3457   4.6905   5.8542

          k = 0.3125-0.0625 0.4375 (  2933 PWs)   bands (ev):

   -14.5612 -14.5587 -14.5010 -14.4400 -14.4155 -14.2957 -14.2599 -14.2377
   -14.1758 -14.1679  -2.2878   2.5026   5.0477   6.2464

          k = 0.1875 0.0625 0.3125 (  2915 PWs)   bands (ev):

   -14.5490 -14.5434 -14.5200 -14.4552 -14.4389 -14.2736 -14.2440 -14.2164
   -14.1946 -14.1801  -2.7293   3.6635   5.9108   6.5427

          k =-0.0625 0.5625 0.0625 (  2919 PWs)   bands (ev):

   -14.5580 -14.5553 -14.5204 -14.4283 -14.3845 -14.3407 -14.2631 -14.2070
   -14.1786 -14.1745  -2.1715   2.3995   5.3419   5.4311

          k =-0.1875 0.6875-0.0625 (  2938 PWs)   bands (ev):

   -14.5709 -14.5654 -14.4959 -14.4073 -14.3668 -14.3596 -14.2851 -14.2346
   -14.1650 -14.1590  -1.6528   1.4825   4.7717   5.1670

          k = 0.6875-0.1875 0.8125 (  2941 PWs)   bands (ev):

   -14.5854 -14.5704 -14.4648 -14.3871 -14.3699 -14.3537 -14.3089 -14.2668
   -14.1580 -14.1426  -1.0735   0.6743   4.1893   5.1358

          k = 0.5625-0.0625 0.6875 (  2950 PWs)   bands (ev):

   -14.5882 -14.5717 -14.4563 -14.3923 -14.3739 -14.3369 -14.3168 -14.2766
   -14.1559 -14.1405  -1.1379   0.7563   3.9738   5.3915

          k = 0.4375 0.0625 0.5625 (  2939 PWs)   bands (ev):

   -14.5767 -14.5675 -14.4741 -14.4231 -14.3934 -14.3144 -14.2760 -14.2704
   -14.1604 -14.1544  -1.7263   1.5183   4.3581   5.8303

          k = 0.3125 0.1875 0.4375 (  2932 PWs)   bands (ev):

   -14.5615 -14.5553 -14.5040 -14.4379 -14.4205 -14.2888 -14.2608 -14.2379
   -14.1779 -14.1682  -2.2155   2.2166   5.4203   6.1520

          k =-0.0625 0.8125 0.0625 (  2941 PWs)   bands (ev):

   -14.5708 -14.5684 -14.4892 -14.4072 -14.3835 -14.3223 -14.3076 -14.2399
   -14.1608 -14.1582  -1.1846   0.8226   4.8049   4.9319

          k = 0.8125-0.0625 0.9375 (  2939 PWs)   bands (ev):

   -14.5790 -14.5737 -14.4567 -14.4258 -14.3592 -14.3331 -14.3036 -14.2731
   -14.1539 -14.1483  -0.5594   0.0979   4.4586   4.7816

          k = 0.6875 0.0625 0.8125 (  2937 PWs)   bands (ev):

   -14.5887 -14.5731 -14.4521 -14.3846 -14.3648 -14.3417 -14.3305 -14.2779
   -14.1541 -14.1388  -0.6913   0.2629   4.0107   5.0224

          k = 0.5625 0.1875 0.6875 (  2945 PWs)   bands (ev):

   -14.5844 -14.5690 -14.4647 -14.4004 -14.3892 -14.3224 -14.3036 -14.2716
   -14.1594 -14.1445  -1.2403   0.7963   4.2387   5.4761

          k = 0.4375 0.3125 0.5625 (  2931 PWs)   bands (ev):

   -14.5683 -14.5606 -14.4909 -14.4245 -14.4161 -14.2879 -14.2740 -14.2558
   -14.1696 -14.1617  -1.6539   1.1319   5.1995   5.8952

          k =-0.0625-0.9375 0.0625 (  2934 PWs)   bands (ev):

   -14.5737 -14.5713 -14.4660 -14.4378 -14.3582 -14.3325 -14.2923 -14.2638
   -14.1561 -14.1538  -0.5783   0.0957   4.6952   4.8294

          k =-0.1875-0.8125-0.0625 (  2936 PWs)   bands (ev):

   -14.5763 -14.5707 -14.4781 -14.3973 -14.3840 -14.3308 -14.3082 -14.2518
   -14.1578 -14.1520  -1.1368   0.7733   4.5642   4.9108

          k =-0.3125-0.6875-0.1875 (  2948 PWs)   bands (ev):

   -14.5794 -14.5656 -14.4803 -14.4084 -14.3811 -14.3393 -14.2876 -14.2543
   -14.1645 -14.1499  -1.4990   1.1686   4.5199   5.3652

          k =-0.0625-0.6875 0.0625 (  2928 PWs)   bands (ev):

   -14.5653 -14.5623 -14.5076 -14.4071 -14.3744 -14.3537 -14.2839 -14.2204
   -14.1684 -14.1654  -1.7181   1.5945   5.0221   5.1344

          k =-0.1875-0.5625-0.0625 (  2931 PWs)   bands (ev):

   -14.5639 -14.5586 -14.5085 -14.4277 -14.3890 -14.3339 -14.2653 -14.2232
   -14.1744 -14.1670  -2.0946   2.2085   5.0742   5.5419

          k =-0.0625-0.4375 0.0625 (  2915 PWs)   bands (ev):

   -14.5504 -14.5471 -14.5273 -14.4465 -14.4135 -14.3078 -14.2459 -14.2027
   -14.1898 -14.1823  -2.5398   3.2258   5.7546   5.8115

          k =-0.1875 0.1875 0.1875 (  2917 PWs)   bands (ev):

   -14.5432 -14.5432 -14.5204 -14.4544 -14.4544 -14.2491 -14.2491 -14.2258
   -14.1885 -14.1885  -2.8228   3.8910   6.6635   6.6635

          k =-0.3125 0.3125 0.0625 (  2921 PWs)   bands (ev):

   -14.5550 -14.5507 -14.5101 -14.4482 -14.4319 -14.2749 -14.2575 -14.2264
   -14.1861 -14.1734  -2.5512   3.1051   5.4676   6.6323

          k =-0.4375 0.4375-0.0625 (  2929 PWs)   bands (ev):

   -14.5682 -14.5639 -14.4863 -14.4343 -14.4080 -14.2962 -14.2687 -14.2568
   -14.1648 -14.1638  -2.0424   2.0145   4.6619   6.2090

          k = 0.4375-0.4375 0.8125 (  2944 PWs)   bands (ev):

   -14.5794 -14.5665 -14.4720 -14.4145 -14.3996 -14.3013 -14.2944 -14.2700
   -14.1616 -14.1506  -1.4715   1.0399   4.4355   5.7829

          k = 0.3125-0.3125 0.6875 (  2947 PWs)   bands (ev):

   -14.5792 -14.5635 -14.4804 -14.4095 -14.3962 -14.3210 -14.2874 -14.2564
   -14.1665 -14.1502  -1.4571   1.0170   4.6169   5.5433

          k = 0.1875-0.1875 0.5625 (  2938 PWs)   bands (ev):

   -14.5683 -14.5565 -14.5040 -14.4271 -14.3948 -14.3259 -14.2672 -14.2296
   -14.1764 -14.1621  -2.0240   2.0021   5.1068   5.5523

          k =-0.1875 0.4375 0.1875 (  2930 PWs)   bands (ev):

   -14.5595 -14.5503 -14.5127 -14.4416 -14.4189 -14.2968 -14.2540 -14.2251
   -14.1842 -14.1707  -2.3742   2.6437   5.6706   5.8956

          k =-0.3125 0.5625 0.0625 (  2940 PWs)   bands (ev):

   -14.5694 -14.5646 -14.4910 -14.4266 -14.3937 -14.3233 -14.2690 -14.2467
   -14.1662 -14.1612  -1.9440   1.8916   4.7011   5.7154

          k = 0.5625-0.3125 0.9375 (  2945 PWs)   bands (ev):

   -14.5830 -14.5723 -14.4618 -14.4057 -14.3740 -14.3403 -14.2958 -14.2744
   -14.1557 -14.1461  -1.3504   1.0277   4.1629   5.3216

          k = 0.4375-0.1875 0.8125 (  2946 PWs)   bands (ev):

   -14.5867 -14.5732 -14.4551 -14.3916 -14.3703 -14.3473 -14.3102 -14.2776
   -14.1549 -14.1414  -1.0450   0.6300   4.1252   5.1047

          k = 0.3125-0.0625 0.6875 (  2945 PWs)   bands (ev):

   -14.5769 -14.5702 -14.4780 -14.4080 -14.3693 -14.3522 -14.2874 -14.2561
   -14.1589 -14.1528  -1.5270   1.2816   4.4494   5.2263

          k =-0.1875 0.6875 0.1875 (  2945 PWs)   bands (ev):

   -14.5761 -14.5632 -14.4910 -14.4077 -14.3706 -14.3540 -14.2861 -14.2407
   -14.1676 -14.1534  -1.5988   1.3628   4.6535   5.2798

          k = 0.6875-0.1875 1.0625 (  2937 PWs)   bands (ev):

   -14.5819 -14.5752 -14.4608 -14.3857 -14.3817 -14.3425 -14.3101 -14.2701
   -14.1527 -14.1462  -1.0479   0.6777   4.3008   4.8507

          k = 0.5625-0.0625 0.9375 (  2948 PWs)   bands (ev):

   -14.5873 -14.5818 -14.4279 -14.3929 -14.3643 -14.3388 -14.3292 -14.2995
   -14.1455 -14.1401  -0.5107   0.1006   4.1257   4.5269

          k = 0.4375 0.0625 0.8125 (  2944 PWs)   bands (ev):

   -14.5865 -14.5776 -14.4460 -14.3857 -14.3680 -14.3512 -14.3163 -14.2848
   -14.1500 -14.1414  -0.9314   0.5468   4.0898   4.8527

          k =-0.1875-1.0625 0.1875 (  2933 PWs)   bands (ev):

   -14.5848 -14.5714 -14.4578 -14.4076 -14.3608 -14.3320 -14.3207 -14.2722
   -14.1559 -14.1423  -0.6054   0.1564   4.1793   4.9964

          k =-0.3125-0.9375 0.0625 (  2934 PWs)   bands (ev):

   -14.5842 -14.5782 -14.4412 -14.4077 -14.3612 -14.3346 -14.3190 -14.2877
   -14.1490 -14.1428  -0.5314   0.1000   4.2449   4.6364

          k =-0.1875-0.8125 0.1875 (  2937 PWs)   bands (ev):

   -14.5818 -14.5686 -14.4741 -14.3855 -14.3848 -14.3415 -14.3083 -14.2561
   -14.1602 -14.1462  -1.1114   0.7336   4.3393   5.0920

          k =-0.3125 0.3125 0.3125 (  2929 PWs)   bands (ev):

   -14.5534 -14.5534 -14.5116 -14.4369 -14.4369 -14.2645 -14.2645 -14.2371
   -14.1776 -14.1776  -2.3086   2.2928   6.2741   6.2741

          k =-0.4375 0.4375 0.1875 (  2933 PWs)   bands (ev):

   -14.5646 -14.5621 -14.4926 -14.4332 -14.4153 -14.2880 -14.2671 -14.2541
   -14.1680 -14.1663  -1.9858   1.7691   5.0501   6.1863

          k = 0.4375-0.4375 1.0625 (  2943 PWs)   bands (ev):

   -14.5837 -14.5689 -14.4639 -14.4109 -14.3870 -14.3142 -14.3029 -14.2734
   -14.1586 -14.1460  -1.4524   1.1326   4.1051   5.7389

          k = 0.3125-0.3125 0.9375 (  2936 PWs)   bands (ev):

   -14.5901 -14.5708 -14.4564 -14.3703 -14.3691 -14.3551 -14.3264 -14.2744
   -14.1563 -14.1377  -0.9095   0.4944   3.9173   5.3126

          k =-0.3125 0.5625 0.3125 (  2938 PWs)   bands (ev):

   -14.5699 -14.5581 -14.4947 -14.4251 -14.4115 -14.2996 -14.2718 -14.2470
   -14.1734 -14.1599  -1.7848   1.3943   5.2122   5.7568

          k = 0.5625-0.3125 1.1875 (  2942 PWs)   bands (ev):

   -14.5816 -14.5687 -14.4687 -14.4084 -14.3880 -14.3251 -14.2919 -14.2692
   -14.1600 -14.1475  -1.3708   0.9620   4.3738   5.4345

          k = 0.4375-0.1875 1.0625 (  2951 PWs)   bands (ev):

   -14.5892 -14.5764 -14.4442 -14.3778 -14.3652 -14.3533 -14.3268 -14.2856
   -14.1512 -14.1386  -0.8057   0.4004   3.9828   4.9321

          k =-0.3125-1.1875 0.3125 (  2940 PWs)   bands (ev):

   -14.5863 -14.5682 -14.4661 -14.3895 -14.3809 -14.3405 -14.3072 -14.2670
   -14.1602 -14.1420  -1.1359   0.7019   4.1641   5.3913

          k =-0.4375 0.4375 0.4375 (  2929 PWs)   bands (ev):

   -14.5575 -14.5575 -14.5048 -14.4283 -14.4283 -14.2711 -14.2711 -14.2448
   -14.1733 -14.1733  -1.7505   1.1639   6.0589   6.0589

          k = 0.4375-0.4375 1.3125 (  2938 PWs)   bands (ev):

   -14.5716 -14.5625 -14.4851 -14.4196 -14.4145 -14.2853 -14.2838 -14.2614
   -14.1671 -14.1587  -1.5242   0.9627   4.9883   5.8625

     highest occupied level (ev):     7.0653

!    total energy              =    -318.48975609 Ry
     Harris-Foulkes estimate   =    -318.48975609 Ry
     estimated scf accuracy    <          2.4E-09 Ry

     The total energy is the sum of the following terms:

     one-electron contribution =    -161.22697772 Ry
     hartree contribution      =      97.23460433 Ry
     xc contribution           =     -85.97185730 Ry
     ewald contribution        =    -168.52552540 Ry

     convergence has been achieved in   7 iterations

     Writing output data file sn.alpha.12.53.save

     init_run     :      1.24s CPU      1.27s WALL (       1 calls)
     electrons    :     17.67s CPU     18.24s WALL (       1 calls)

     Called by init_run:
     wfcinit      :      0.76s CPU      0.78s WALL (       1 calls)
     potinit      :      0.05s CPU      0.06s WALL (       1 calls)

     Called by electrons:
     c_bands      :     14.07s CPU     14.39s WALL (       7 calls)
     sum_band     :      2.74s CPU      2.89s WALL (       7 calls)
     v_of_rho     :      0.37s CPU      0.39s WALL (       8 calls)
     newd         :      0.53s CPU      0.60s WALL (       8 calls)
     mix_rho      :      0.03s CPU      0.03s WALL (       7 calls)

     Called by c_bands:
     init_us_2    :      0.41s CPU      0.41s WALL (     900 calls)
     cegterg      :     13.36s CPU     13.67s WALL (     420 calls)

     Called by sum_band:
     sum_band:bec :      0.00s CPU      0.00s WALL (     420 calls)
     addusdens    :      0.54s CPU      0.63s WALL (       7 calls)

     Called by *egterg:
     h_psi        :     11.54s CPU     11.84s WALL (    1732 calls)
     s_psi        :      0.24s CPU      0.24s WALL (    1732 calls)
     g_psi        :      0.08s CPU      0.08s WALL (    1252 calls)
     cdiaghg      :      0.75s CPU      0.75s WALL (    1672 calls)

     Called by h_psi:
     h_psi:pot    :     11.41s CPU     11.70s WALL (    1732 calls)
     h_psi:calbec :      0.51s CPU      0.52s WALL (    1732 calls)
     vloc_psi     :     10.58s CPU     10.86s WALL (    1732 calls)
     add_vuspsi   :      0.31s CPU      0.32s WALL (    1732 calls)

     General routines
     calbec       :      0.64s CPU      0.65s WALL (    2152 calls)
     fft          :      0.19s CPU      0.20s WALL (     124 calls)
     ffts         :      0.01s CPU      0.01s WALL (      15 calls)
     fftw         :      9.69s CPU      9.96s WALL (   45636 calls)
     interpolate  :      0.04s CPU      0.04s WALL (      15 calls)
     davcio       :      0.00s CPU      0.00s WALL (      60 calls)

     Parallel routines
     fft_scatter  :      1.67s CPU      1.64s WALL (   45775 calls)

     PWSCF        :    19.06s CPU        20.77s WALL


   This run was terminated on:  16:12:16  11Nov2017            

=------------------------------------------------------------------------------=
   JOB DONE.
=------------------------------------------------------------------------------=
