
     Program PWSCF v.6.1 (svn rev. 13369) starts on 23Nov2017 at  1:39:18 

     This program is part of the open-source Quantum ESPRESSO suite
     for quantum simulation of materials; please cite
         "P. Giannozzi et al., J. Phys.:Condens. Matter 21 395502 (2009);
          URL http://www.quantum-espresso.org", 
     in publications or presentations arising from this work. More details at
     http://www.quantum-espresso.org/quote

     Parallel version (MPI), running on     4 processors
     R & G space division:  proc/nbgrp/npool/nimage =       4
     Waiting for input...
     Reading input from standard input
     Message from routine read_cards :
     DEPRECATED: no units specified in ATOMIC_POSITIONS card
     Message from routine read_cards :
     ATOMIC_POSITIONS: units set to alat

     Current dimensions of program PWSCF are:
     Max number of different atomic species (ntypx) = 10
     Max number of k-points (npk) =  40000
     Max angular momentum in pseudopotentials (lmaxx) =  3

     Subspace diagonalization in iterative solution of the eigenvalue problem:
     a serial algorithm will be used


     Parallelization info
     --------------------
     sticks:   dense  smooth     PW     G-vecs:    dense   smooth      PW
     Min         526     261     78                15974     5604     958
     Max         527     262     79                15977     5605     963
     Sum        2107    1045    313                63903    22419    3839



     bravais-lattice index     =            2
     lattice parameter (alat)  =      12.3600  a.u.
     unit-cell volume          =     472.0581 (a.u.)^3
     number of atoms/cell      =            2
     number of atomic types    =            1
     number of electrons       =        28.00
     number of Kohn-Sham states=           14
     kinetic-energy cutoff     =      50.0000  Ry
     charge density cutoff     =     400.0000  Ry
     convergence threshold     =      1.0E-08
     mixing beta               =       0.7000
     number of iterations used =            8  plain     mixing
     Exchange-correlation      =  SLA  PW   PBX  PBC ( 1  4  3  4 0 0)

     celldm(1)=  12.360000  celldm(2)=   0.000000  celldm(3)=   0.000000
     celldm(4)=   0.000000  celldm(5)=   0.000000  celldm(6)=   0.000000

     crystal axes: (cart. coord. in units of alat)
               a(1) = (  -0.500000   0.000000   0.500000 )  
               a(2) = (   0.000000   0.500000   0.500000 )  
               a(3) = (  -0.500000   0.500000   0.000000 )  

     reciprocal axes: (cart. coord. in units 2 pi/alat)
               b(1) = ( -1.000000 -1.000000  1.000000 )  
               b(2) = (  1.000000  1.000000  1.000000 )  
               b(3) = ( -1.000000  1.000000 -1.000000 )  


     PseudoPot. # 1 for Sn read from file:
     /home/s1333534/quantum_espresso/qe-6.1/pseudo/sn_pbe_v1.4.uspp.F.UPF
     MD5 check sum: 469debedee59599fedebd795477fea03
     Pseudo is Ultrasoft + core correction, Zval = 14.0
     Generated by new atomic code, or converted to UPF format
     Using radial grid of  891 points,  6 beta functions with: 
                l(1) =   0
                l(2) =   0
                l(3) =   1
                l(4) =   1
                l(5) =   2
                l(6) =   2
     Q(r) pseudized with  8 coefficients,  rinner =    1.350   1.350   1.350
                                                       1.350   1.350

     atomic species   valence    mass     pseudopotential
        Sn            14.00   118.71000     Sn( 1.00)

     48 Sym. Ops., with inversion, found (24 have fractional translation)



   Cartesian axes

     site n.     atom                  positions (alat units)
         1           Sn  tau(   1) = (   0.0000000   0.0000000   0.0000000  )
         2           Sn  tau(   2) = (   0.2500000   0.2500000   0.2500000  )

     number of k points=   570

     Number of k-points >= 100: set verbosity='high' to print them.

     Dense  grid:    63903 G-vectors     FFT dimensions: (  60,  60,  60)

     Smooth grid:    22419 G-vectors     FFT dimensions: (  40,  40,  40)

     Estimated max dynamical RAM per process >      97.59MB

     Estimated total allocated dynamical RAM >     390.38MB

     Initial potential from superposition of free atoms

     starting charge   25.99991, renormalised to   28.00000
     Starting wfc are   18 randomized atomic wfcs

     total cpu time spent up to now is        7.9 secs

     per-process dynamical memory:   107.6 Mb

     Self-consistent Calculation

     iteration #  1     ecut=    50.00 Ry     beta=0.70
     Davidson diagonalization with overlap
     ethr =  1.00E-02,  avg # of iterations =  2.8

     total cpu time spent up to now is       29.3 secs

     total energy              =    -317.49000921 Ry
     Harris-Foulkes estimate   =    -319.53784203 Ry
     estimated scf accuracy    <       2.49559942 Ry

     iteration #  2     ecut=    50.00 Ry     beta=0.70
     Davidson diagonalization with overlap
     ethr =  8.91E-03,  avg # of iterations =  3.0

     total cpu time spent up to now is       52.8 secs

     total energy              =    -318.39272715 Ry
     Harris-Foulkes estimate   =    -318.70966026 Ry
     estimated scf accuracy    <       0.47271262 Ry

     iteration #  3     ecut=    50.00 Ry     beta=0.70
     Davidson diagonalization with overlap
     ethr =  1.69E-03,  avg # of iterations =  2.0

     total cpu time spent up to now is       73.1 secs

     total energy              =    -318.48732855 Ry
     Harris-Foulkes estimate   =    -318.48890101 Ry
     estimated scf accuracy    <       0.00288059 Ry

     iteration #  4     ecut=    50.00 Ry     beta=0.70
     Davidson diagonalization with overlap
     ethr =  1.03E-05,  avg # of iterations =  3.0

     total cpu time spent up to now is       94.9 secs

     total energy              =    -318.48822276 Ry
     Harris-Foulkes estimate   =    -318.48834157 Ry
     estimated scf accuracy    <       0.00017647 Ry

     iteration #  5     ecut=    50.00 Ry     beta=0.70
     Davidson diagonalization with overlap
     ethr =  6.30E-07,  avg # of iterations =  3.0

     total cpu time spent up to now is      117.9 secs

     total energy              =    -318.48827638 Ry
     Harris-Foulkes estimate   =    -318.48827704 Ry
     estimated scf accuracy    <       0.00000142 Ry

     iteration #  6     ecut=    50.00 Ry     beta=0.70
     Davidson diagonalization with overlap
     ethr =  5.07E-09,  avg # of iterations =  3.9

     total cpu time spent up to now is      142.0 secs

     total energy              =    -318.48827716 Ry
     Harris-Foulkes estimate   =    -318.48827721 Ry
     estimated scf accuracy    <       0.00000008 Ry

     iteration #  7     ecut=    50.00 Ry     beta=0.70
     Davidson diagonalization with overlap
     ethr =  2.95E-10,  avg # of iterations =  3.0

     total cpu time spent up to now is      164.2 secs

     End of self-consistent calculation

     Number of k-points >= 100: set verbosity='high' to print the bands.

     highest occupied level (ev):     7.6208

!    total energy              =    -318.48827719 Ry
     Harris-Foulkes estimate   =    -318.48827719 Ry
     estimated scf accuracy    <          2.2E-09 Ry

     The total energy is the sum of the following terms:

     one-electron contribution =    -157.44357169 Ry
     hartree contribution      =      95.80967401 Ry
     xc contribution           =     -86.01094639 Ry
     ewald contribution        =    -170.84343312 Ry

     convergence has been achieved in   7 iterations


     Computing stress (Cartesian axis) and pressure

          total   stress  (Ry/bohr**3)                   (kbar)     P=    1.89
   0.00001284  -0.00000000  -0.00000000          1.89     -0.00     -0.00
  -0.00000000   0.00001284   0.00000000         -0.00      1.89      0.00
  -0.00000000   0.00000000   0.00001284         -0.00      0.00      1.89


     Writing output data file sn.a.12.36.18.save

     init_run     :      7.60s CPU      7.80s WALL (       1 calls)
     electrons    :    152.43s CPU    156.38s WALL (       1 calls)
     stress       :      4.26s CPU      4.30s WALL (       1 calls)

     Called by init_run:
     wfcinit      :      7.09s CPU      7.28s WALL (       1 calls)
     potinit      :      0.06s CPU      0.06s WALL (       1 calls)

     Called by electrons:
     c_bands      :    131.47s CPU    134.77s WALL (       7 calls)
     sum_band     :     20.11s CPU     20.69s WALL (       7 calls)
     v_of_rho     :      0.36s CPU      0.38s WALL (       8 calls)
     newd         :      0.55s CPU      0.60s WALL (       8 calls)
     mix_rho      :      0.03s CPU      0.03s WALL (       7 calls)

     Called by c_bands:
     init_us_2    :      3.79s CPU      3.85s WALL (    9120 calls)
     cegterg      :    124.97s CPU    128.23s WALL (    3990 calls)

     Called by sum_band:
     sum_band:bec :      0.02s CPU      0.04s WALL (    3990 calls)
     addusdens    :      0.51s CPU      0.61s WALL (       7 calls)

     Called by *egterg:
     h_psi        :    108.39s CPU    111.57s WALL (   16360 calls)
     s_psi        :      2.00s CPU      2.03s WALL (   16360 calls)
     g_psi        :      0.70s CPU      0.70s WALL (   11800 calls)
     cdiaghg      :      6.97s CPU      6.99s WALL (   15790 calls)

     Called by h_psi:
     h_psi:pot    :    107.35s CPU    110.52s WALL (   16360 calls)
     h_psi:calbec :      4.51s CPU      4.58s WALL (   16360 calls)
     vloc_psi     :    100.17s CPU    103.17s WALL (   16360 calls)
     add_vuspsi   :      2.65s CPU      2.71s WALL (   16360 calls)

     General routines
     calbec       :      5.82s CPU      5.90s WALL (   20920 calls)
     fft          :      0.20s CPU      0.21s WALL (     138 calls)
     ffts         :      0.01s CPU      0.01s WALL (      15 calls)
     fftw         :     92.30s CPU     95.76s WALL (  433602 calls)
     interpolate  :      0.03s CPU      0.04s WALL (      15 calls)
     davcio       :      0.01s CPU      0.06s WALL (     570 calls)

     Parallel routines
     fft_scatter  :     16.59s CPU     16.03s WALL (  433755 calls)

     PWSCF        :  2m44.89s CPU     2m49.24s WALL


   This run was terminated on:   1:42: 7  23Nov2017            

=------------------------------------------------------------------------------=
   JOB DONE.
=------------------------------------------------------------------------------=
