
     Program PWSCF v.6.1 (svn rev. 13369) starts on 23Nov2017 at  1:42: 7 

     This program is part of the open-source Quantum ESPRESSO suite
     for quantum simulation of materials; please cite
         "P. Giannozzi et al., J. Phys.:Condens. Matter 21 395502 (2009);
          URL http://www.quantum-espresso.org", 
     in publications or presentations arising from this work. More details at
     http://www.quantum-espresso.org/quote

     Parallel version (MPI), running on     4 processors
     R & G space division:  proc/nbgrp/npool/nimage =       4
     Waiting for input...
     Reading input from standard input
     Message from routine read_cards :
     DEPRECATED: no units specified in ATOMIC_POSITIONS card
     Message from routine read_cards :
     ATOMIC_POSITIONS: units set to alat

     Current dimensions of program PWSCF are:
     Max number of different atomic species (ntypx) = 10
     Max number of k-points (npk) =  40000
     Max angular momentum in pseudopotentials (lmaxx) =  3

     Subspace diagonalization in iterative solution of the eigenvalue problem:
     a serial algorithm will be used


     Parallelization info
     --------------------
     sticks:   dense  smooth     PW     G-vecs:    dense   smooth      PW
     Min         526     261     78                15974     5604     958
     Max         527     262     79                15977     5605     963
     Sum        2107    1045    313                63903    22419    3839



     bravais-lattice index     =            2
     lattice parameter (alat)  =      12.3600  a.u.
     unit-cell volume          =     472.0581 (a.u.)^3
     number of atoms/cell      =            2
     number of atomic types    =            1
     number of electrons       =        28.00
     number of Kohn-Sham states=           14
     kinetic-energy cutoff     =      50.0000  Ry
     charge density cutoff     =     400.0000  Ry
     convergence threshold     =      1.0E-08
     mixing beta               =       0.7000
     number of iterations used =            8  plain     mixing
     Exchange-correlation      =  SLA  PW   PBX  PBC ( 1  4  3  4 0 0)

     celldm(1)=  12.360000  celldm(2)=   0.000000  celldm(3)=   0.000000
     celldm(4)=   0.000000  celldm(5)=   0.000000  celldm(6)=   0.000000

     crystal axes: (cart. coord. in units of alat)
               a(1) = (  -0.500000   0.000000   0.500000 )  
               a(2) = (   0.000000   0.500000   0.500000 )  
               a(3) = (  -0.500000   0.500000   0.000000 )  

     reciprocal axes: (cart. coord. in units 2 pi/alat)
               b(1) = ( -1.000000 -1.000000  1.000000 )  
               b(2) = (  1.000000  1.000000  1.000000 )  
               b(3) = ( -1.000000  1.000000 -1.000000 )  


     PseudoPot. # 1 for Sn read from file:
     /home/s1333534/quantum_espresso/qe-6.1/pseudo/sn_pbe_v1.4.uspp.F.UPF
     MD5 check sum: 469debedee59599fedebd795477fea03
     Pseudo is Ultrasoft + core correction, Zval = 14.0
     Generated by new atomic code, or converted to UPF format
     Using radial grid of  891 points,  6 beta functions with: 
                l(1) =   0
                l(2) =   0
                l(3) =   1
                l(4) =   1
                l(5) =   2
                l(6) =   2
     Q(r) pseudized with  8 coefficients,  rinner =    1.350   1.350   1.350
                                                       1.350   1.350

     atomic species   valence    mass     pseudopotential
        Sn            14.00   118.71000     Sn( 1.00)

     48 Sym. Ops., with inversion, found (24 have fractional translation)



   Cartesian axes

     site n.     atom                  positions (alat units)
         1           Sn  tau(   1) = (   0.0000000   0.0000000   0.0000000  )
         2           Sn  tau(   2) = (   0.2500000   0.2500000   0.2500000  )

     number of k points=   770

     Number of k-points >= 100: set verbosity='high' to print them.

     Dense  grid:    63903 G-vectors     FFT dimensions: (  60,  60,  60)

     Smooth grid:    22419 G-vectors     FFT dimensions: (  40,  40,  40)

     Estimated max dynamical RAM per process >     127.67MB

     Estimated total allocated dynamical RAM >     510.69MB

     Initial potential from superposition of free atoms

     starting charge   25.99991, renormalised to   28.00000
     Starting wfc are   18 randomized atomic wfcs

     total cpu time spent up to now is       10.3 secs

     per-process dynamical memory:   139.8 Mb

     Self-consistent Calculation

     iteration #  1     ecut=    50.00 Ry     beta=0.70
     Davidson diagonalization with overlap
     ethr =  1.00E-02,  avg # of iterations =  2.8

     total cpu time spent up to now is       38.6 secs

     total energy              =    -317.48990728 Ry
     Harris-Foulkes estimate   =    -319.53784572 Ry
     estimated scf accuracy    <       2.49573184 Ry

     iteration #  2     ecut=    50.00 Ry     beta=0.70
     Davidson diagonalization with overlap
     ethr =  8.91E-03,  avg # of iterations =  3.0

     total cpu time spent up to now is       69.6 secs

     total energy              =    -318.39271855 Ry
     Harris-Foulkes estimate   =    -318.70968892 Ry
     estimated scf accuracy    <       0.47277122 Ry

     iteration #  3     ecut=    50.00 Ry     beta=0.70
     Davidson diagonalization with overlap
     ethr =  1.69E-03,  avg # of iterations =  2.0

     total cpu time spent up to now is       96.8 secs

     total energy              =    -318.48732853 Ry
     Harris-Foulkes estimate   =    -318.48890180 Ry
     estimated scf accuracy    <       0.00288131 Ry

     iteration #  4     ecut=    50.00 Ry     beta=0.70
     Davidson diagonalization with overlap
     ethr =  1.03E-05,  avg # of iterations =  3.0

     total cpu time spent up to now is      126.2 secs

     total energy              =    -318.48822220 Ry
     Harris-Foulkes estimate   =    -318.48834090 Ry
     estimated scf accuracy    <       0.00017631 Ry

     iteration #  5     ecut=    50.00 Ry     beta=0.70
     Davidson diagonalization with overlap
     ethr =  6.30E-07,  avg # of iterations =  3.0

     total cpu time spent up to now is      155.6 secs

     total energy              =    -318.48827578 Ry
     Harris-Foulkes estimate   =    -318.48827644 Ry
     estimated scf accuracy    <       0.00000142 Ry

     iteration #  6     ecut=    50.00 Ry     beta=0.70
     Davidson diagonalization with overlap
     ethr =  5.07E-09,  avg # of iterations =  3.9

     total cpu time spent up to now is      187.9 secs

     total energy              =    -318.48827656 Ry
     Harris-Foulkes estimate   =    -318.48827661 Ry
     estimated scf accuracy    <       0.00000008 Ry

     iteration #  7     ecut=    50.00 Ry     beta=0.70
     Davidson diagonalization with overlap
     ethr =  2.97E-10,  avg # of iterations =  3.0

     total cpu time spent up to now is      217.9 secs

     End of self-consistent calculation

     Number of k-points >= 100: set verbosity='high' to print the bands.

     highest occupied level (ev):     7.6239

!    total energy              =    -318.48827659 Ry
     Harris-Foulkes estimate   =    -318.48827659 Ry
     estimated scf accuracy    <          2.3E-09 Ry

     The total energy is the sum of the following terms:

     one-electron contribution =    -157.44357155 Ry
     hartree contribution      =      95.80967502 Ry
     xc contribution           =     -86.01094694 Ry
     ewald contribution        =    -170.84343312 Ry

     convergence has been achieved in   7 iterations


     Computing stress (Cartesian axis) and pressure

          total   stress  (Ry/bohr**3)                   (kbar)     P=    1.89
   0.00001286   0.00000000   0.00000000          1.89      0.00      0.00
   0.00000000   0.00001286  -0.00000000          0.00      1.89     -0.00
   0.00000000  -0.00000000   0.00001286          0.00     -0.00      1.89


     Writing output data file sn.a.12.36.20.save

     init_run     :      9.96s CPU     10.26s WALL (       1 calls)
     electrons    :    202.07s CPU    207.62s WALL (       1 calls)
     stress       :      5.57s CPU      5.60s WALL (       1 calls)

     Called by init_run:
     wfcinit      :      9.46s CPU      9.74s WALL (       1 calls)
     potinit      :      0.06s CPU      0.06s WALL (       1 calls)

     Called by electrons:
     c_bands      :    174.57s CPU    179.21s WALL (       7 calls)
     sum_band     :     26.70s CPU     27.53s WALL (       7 calls)
     v_of_rho     :      0.35s CPU      0.37s WALL (       8 calls)
     newd         :      0.48s CPU      0.57s WALL (       8 calls)
     mix_rho      :      0.03s CPU      0.03s WALL (       7 calls)

     Called by c_bands:
     init_us_2    :      4.73s CPU      4.81s WALL (   12320 calls)
     cegterg      :    165.91s CPU    170.46s WALL (    5390 calls)

     Called by sum_band:
     sum_band:bec :      0.03s CPU      0.06s WALL (    5390 calls)
     addusdens    :      0.50s CPU      0.62s WALL (       7 calls)

     Called by *egterg:
     h_psi        :    143.92s CPU    148.36s WALL (   22117 calls)
     s_psi        :      2.54s CPU      2.57s WALL (   22117 calls)
     g_psi        :      0.94s CPU      0.95s WALL (   15957 calls)
     cdiaghg      :      9.38s CPU      9.42s WALL (   21347 calls)

     Called by h_psi:
     h_psi:pot    :    142.70s CPU    147.12s WALL (   22117 calls)
     h_psi:calbec :      6.01s CPU      6.09s WALL (   22117 calls)
     vloc_psi     :    133.47s CPU    137.68s WALL (   22117 calls)
     add_vuspsi   :      3.19s CPU      3.27s WALL (   22117 calls)

     General routines
     calbec       :      7.67s CPU      7.78s WALL (   28277 calls)
     fft          :      0.18s CPU      0.18s WALL (     138 calls)
     ffts         :      0.01s CPU      0.01s WALL (      15 calls)
     fftw         :    124.56s CPU    129.25s WALL (  585680 calls)
     interpolate  :      0.03s CPU      0.03s WALL (      15 calls)
     davcio       :      0.02s CPU      0.06s WALL (     770 calls)

     Parallel routines
     fft_scatter  :     22.28s CPU     21.48s WALL (  585833 calls)

     PWSCF        :  3m38.39s CPU     3m44.48s WALL


   This run was terminated on:   1:45:52  23Nov2017            

=------------------------------------------------------------------------------=
   JOB DONE.
=------------------------------------------------------------------------------=
