
     Program PWSCF v.6.1 (svn rev. 13369) starts on 23Nov2017 at  1:35:47 

     This program is part of the open-source Quantum ESPRESSO suite
     for quantum simulation of materials; please cite
         "P. Giannozzi et al., J. Phys.:Condens. Matter 21 395502 (2009);
          URL http://www.quantum-espresso.org", 
     in publications or presentations arising from this work. More details at
     http://www.quantum-espresso.org/quote

     Parallel version (MPI), running on     4 processors
     R & G space division:  proc/nbgrp/npool/nimage =       4
     Waiting for input...
     Reading input from standard input
     Message from routine read_cards :
     DEPRECATED: no units specified in ATOMIC_POSITIONS card
     Message from routine read_cards :
     ATOMIC_POSITIONS: units set to alat

     Current dimensions of program PWSCF are:
     Max number of different atomic species (ntypx) = 10
     Max number of k-points (npk) =  40000
     Max angular momentum in pseudopotentials (lmaxx) =  3

     Subspace diagonalization in iterative solution of the eigenvalue problem:
     a serial algorithm will be used


     Parallelization info
     --------------------
     sticks:   dense  smooth     PW     G-vecs:    dense   smooth      PW
     Min         526     261     78                15974     5604     958
     Max         527     262     79                15977     5605     963
     Sum        2107    1045    313                63903    22419    3839



     bravais-lattice index     =            2
     lattice parameter (alat)  =      12.3600  a.u.
     unit-cell volume          =     472.0581 (a.u.)^3
     number of atoms/cell      =            2
     number of atomic types    =            1
     number of electrons       =        28.00
     number of Kohn-Sham states=           14
     kinetic-energy cutoff     =      50.0000  Ry
     charge density cutoff     =     400.0000  Ry
     convergence threshold     =      1.0E-08
     mixing beta               =       0.7000
     number of iterations used =            8  plain     mixing
     Exchange-correlation      =  SLA  PW   PBX  PBC ( 1  4  3  4 0 0)

     celldm(1)=  12.360000  celldm(2)=   0.000000  celldm(3)=   0.000000
     celldm(4)=   0.000000  celldm(5)=   0.000000  celldm(6)=   0.000000

     crystal axes: (cart. coord. in units of alat)
               a(1) = (  -0.500000   0.000000   0.500000 )  
               a(2) = (   0.000000   0.500000   0.500000 )  
               a(3) = (  -0.500000   0.500000   0.000000 )  

     reciprocal axes: (cart. coord. in units 2 pi/alat)
               b(1) = ( -1.000000 -1.000000  1.000000 )  
               b(2) = (  1.000000  1.000000  1.000000 )  
               b(3) = ( -1.000000  1.000000 -1.000000 )  


     PseudoPot. # 1 for Sn read from file:
     /home/s1333534/quantum_espresso/qe-6.1/pseudo/sn_pbe_v1.4.uspp.F.UPF
     MD5 check sum: 469debedee59599fedebd795477fea03
     Pseudo is Ultrasoft + core correction, Zval = 14.0
     Generated by new atomic code, or converted to UPF format
     Using radial grid of  891 points,  6 beta functions with: 
                l(1) =   0
                l(2) =   0
                l(3) =   1
                l(4) =   1
                l(5) =   2
                l(6) =   2
     Q(r) pseudized with  8 coefficients,  rinner =    1.350   1.350   1.350
                                                       1.350   1.350

     atomic species   valence    mass     pseudopotential
        Sn            14.00   118.71000     Sn( 1.00)

     48 Sym. Ops., with inversion, found (24 have fractional translation)



   Cartesian axes

     site n.     atom                  positions (alat units)
         1           Sn  tau(   1) = (   0.0000000   0.0000000   0.0000000  )
         2           Sn  tau(   2) = (   0.2500000   0.2500000   0.2500000  )

     number of k points=   280

     Number of k-points >= 100: set verbosity='high' to print them.

     Dense  grid:    63903 G-vectors     FFT dimensions: (  60,  60,  60)

     Smooth grid:    22419 G-vectors     FFT dimensions: (  40,  40,  40)

     Estimated max dynamical RAM per process >      53.98MB

     Estimated total allocated dynamical RAM >     215.92MB

     Initial potential from superposition of free atoms

     starting charge   25.99991, renormalised to   28.00000
     Starting wfc are   18 randomized atomic wfcs

     total cpu time spent up to now is        4.3 secs

     per-process dynamical memory:    60.7 Mb

     Self-consistent Calculation

     iteration #  1     ecut=    50.00 Ry     beta=0.70
     Davidson diagonalization with overlap
     ethr =  1.00E-02,  avg # of iterations =  2.8

     total cpu time spent up to now is       15.2 secs

     total energy              =    -317.48968178 Ry
     Harris-Foulkes estimate   =    -319.53787579 Ry
     estimated scf accuracy    <       2.49604201 Ry

     iteration #  2     ecut=    50.00 Ry     beta=0.70
     Davidson diagonalization with overlap
     ethr =  8.91E-03,  avg # of iterations =  3.0

     total cpu time spent up to now is       27.3 secs

     total energy              =    -318.39267841 Ry
     Harris-Foulkes estimate   =    -318.70977304 Ry
     estimated scf accuracy    <       0.47297095 Ry

     iteration #  3     ecut=    50.00 Ry     beta=0.70
     Davidson diagonalization with overlap
     ethr =  1.69E-03,  avg # of iterations =  2.0

     total cpu time spent up to now is       37.9 secs

     total energy              =    -318.48732856 Ry
     Harris-Foulkes estimate   =    -318.48890297 Ry
     estimated scf accuracy    <       0.00288315 Ry

     iteration #  4     ecut=    50.00 Ry     beta=0.70
     Davidson diagonalization with overlap
     ethr =  1.03E-05,  avg # of iterations =  3.0

     total cpu time spent up to now is       49.0 secs

     total energy              =    -318.48822368 Ry
     Harris-Foulkes estimate   =    -318.48834248 Ry
     estimated scf accuracy    <       0.00017650 Ry

     iteration #  5     ecut=    50.00 Ry     beta=0.70
     Davidson diagonalization with overlap
     ethr =  6.30E-07,  avg # of iterations =  3.0

     total cpu time spent up to now is       60.5 secs

     total energy              =    -318.48827730 Ry
     Harris-Foulkes estimate   =    -318.48827796 Ry
     estimated scf accuracy    <       0.00000142 Ry

     iteration #  6     ecut=    50.00 Ry     beta=0.70
     Davidson diagonalization with overlap
     ethr =  5.07E-09,  avg # of iterations =  4.0

     total cpu time spent up to now is       73.2 secs

     total energy              =    -318.48827807 Ry
     Harris-Foulkes estimate   =    -318.48827813 Ry
     estimated scf accuracy    <       0.00000009 Ry

     iteration #  7     ecut=    50.00 Ry     beta=0.70
     Davidson diagonalization with overlap
     ethr =  3.08E-10,  avg # of iterations =  3.0

     total cpu time spent up to now is       84.7 secs

     End of self-consistent calculation

     Number of k-points >= 100: set verbosity='high' to print the bands.

     highest occupied level (ev):     7.6102

!    total energy              =    -318.48827810 Ry
     Harris-Foulkes estimate   =    -318.48827810 Ry
     estimated scf accuracy    <          2.2E-09 Ry

     The total energy is the sum of the following terms:

     one-electron contribution =    -157.44358909 Ry
     hartree contribution      =      95.80969352 Ry
     xc contribution           =     -86.01094942 Ry
     ewald contribution        =    -170.84343312 Ry

     convergence has been achieved in   7 iterations


     Computing stress (Cartesian axis) and pressure

          total   stress  (Ry/bohr**3)                   (kbar)     P=    1.91
   0.00001298  -0.00000000  -0.00000000          1.91     -0.00     -0.00
  -0.00000000   0.00001298   0.00000000         -0.00      1.91      0.00
  -0.00000000   0.00000000   0.00001298         -0.00      0.00      1.91


     Writing output data file sn.a.12.36.14.save

     init_run     :      4.07s CPU      4.20s WALL (       1 calls)
     electrons    :     78.54s CPU     80.47s WALL (       1 calls)
     stress       :      2.39s CPU      2.40s WALL (       1 calls)

     Called by init_run:
     wfcinit      :      3.60s CPU      3.71s WALL (       1 calls)
     potinit      :      0.05s CPU      0.06s WALL (       1 calls)

     Called by electrons:
     c_bands      :     67.42s CPU     68.94s WALL (       7 calls)
     sum_band     :     10.30s CPU     10.63s WALL (       7 calls)
     v_of_rho     :      0.36s CPU      0.38s WALL (       8 calls)
     newd         :      0.50s CPU      0.56s WALL (       8 calls)
     mix_rho      :      0.03s CPU      0.03s WALL (       7 calls)

     Called by c_bands:
     init_us_2    :      1.89s CPU      1.92s WALL (    4480 calls)
     cegterg      :     64.17s CPU     65.66s WALL (    1960 calls)

     Called by sum_band:
     sum_band:bec :      0.01s CPU      0.02s WALL (    1960 calls)
     addusdens    :      0.52s CPU      0.61s WALL (       7 calls)

     Called by *egterg:
     h_psi        :     55.61s CPU     57.08s WALL (    8060 calls)
     s_psi        :      1.13s CPU      1.14s WALL (    8060 calls)
     g_psi        :      0.34s CPU      0.35s WALL (    5820 calls)
     cdiaghg      :      3.49s CPU      3.49s WALL (    7780 calls)

     Called by h_psi:
     h_psi:pot    :     54.96s CPU     56.42s WALL (    8060 calls)
     h_psi:calbec :      2.18s CPU      2.20s WALL (    8060 calls)
     vloc_psi     :     51.11s CPU     52.49s WALL (    8060 calls)
     add_vuspsi   :      1.66s CPU      1.70s WALL (    8060 calls)

     General routines
     calbec       :      2.80s CPU      2.83s WALL (   10300 calls)
     fft          :      0.19s CPU      0.20s WALL (     138 calls)
     ffts         :      0.01s CPU      0.01s WALL (      15 calls)
     fftw         :     45.58s CPU     47.14s WALL (  213040 calls)
     interpolate  :      0.04s CPU      0.04s WALL (      15 calls)
     davcio       :      0.01s CPU      0.03s WALL (     280 calls)

     Parallel routines
     fft_scatter  :      7.97s CPU      7.73s WALL (  213193 calls)

     PWSCF        :  1m25.32s CPU     1m27.49s WALL


   This run was terminated on:   1:37:14  23Nov2017            

=------------------------------------------------------------------------------=
   JOB DONE.
=------------------------------------------------------------------------------=
