
     Program PWSCF v.6.1 (svn rev. 13369) starts on 23Nov2017 at  1:33:44 

     This program is part of the open-source Quantum ESPRESSO suite
     for quantum simulation of materials; please cite
         "P. Giannozzi et al., J. Phys.:Condens. Matter 21 395502 (2009);
          URL http://www.quantum-espresso.org", 
     in publications or presentations arising from this work. More details at
     http://www.quantum-espresso.org/quote

     Parallel version (MPI), running on     4 processors
     R & G space division:  proc/nbgrp/npool/nimage =       4
     Waiting for input...
     Reading input from standard input
     Message from routine read_cards :
     DEPRECATED: no units specified in ATOMIC_POSITIONS card
     Message from routine read_cards :
     ATOMIC_POSITIONS: units set to alat

     Current dimensions of program PWSCF are:
     Max number of different atomic species (ntypx) = 10
     Max number of k-points (npk) =  40000
     Max angular momentum in pseudopotentials (lmaxx) =  3

     Subspace diagonalization in iterative solution of the eigenvalue problem:
     a serial algorithm will be used


     Parallelization info
     --------------------
     sticks:   dense  smooth     PW     G-vecs:    dense   smooth      PW
     Min         526     261     78                15974     5604     929
     Max         527     262     79                15977     5605     931
     Sum        2107    1045    313                63903    22419    3719



     bravais-lattice index     =            2
     lattice parameter (alat)  =      12.3600  a.u.
     unit-cell volume          =     472.0581 (a.u.)^3
     number of atoms/cell      =            2
     number of atomic types    =            1
     number of electrons       =        28.00
     number of Kohn-Sham states=           14
     kinetic-energy cutoff     =      50.0000  Ry
     charge density cutoff     =     400.0000  Ry
     convergence threshold     =      1.0E-08
     mixing beta               =       0.7000
     number of iterations used =            8  plain     mixing
     Exchange-correlation      =  SLA  PW   PBX  PBC ( 1  4  3  4 0 0)

     celldm(1)=  12.360000  celldm(2)=   0.000000  celldm(3)=   0.000000
     celldm(4)=   0.000000  celldm(5)=   0.000000  celldm(6)=   0.000000

     crystal axes: (cart. coord. in units of alat)
               a(1) = (  -0.500000   0.000000   0.500000 )  
               a(2) = (   0.000000   0.500000   0.500000 )  
               a(3) = (  -0.500000   0.500000   0.000000 )  

     reciprocal axes: (cart. coord. in units 2 pi/alat)
               b(1) = ( -1.000000 -1.000000  1.000000 )  
               b(2) = (  1.000000  1.000000  1.000000 )  
               b(3) = ( -1.000000  1.000000 -1.000000 )  


     PseudoPot. # 1 for Sn read from file:
     /home/s1333534/quantum_espresso/qe-6.1/pseudo/sn_pbe_v1.4.uspp.F.UPF
     MD5 check sum: 469debedee59599fedebd795477fea03
     Pseudo is Ultrasoft + core correction, Zval = 14.0
     Generated by new atomic code, or converted to UPF format
     Using radial grid of  891 points,  6 beta functions with: 
                l(1) =   0
                l(2) =   0
                l(3) =   1
                l(4) =   1
                l(5) =   2
                l(6) =   2
     Q(r) pseudized with  8 coefficients,  rinner =    1.350   1.350   1.350
                                                       1.350   1.350

     atomic species   valence    mass     pseudopotential
        Sn            14.00   118.71000     Sn( 1.00)

     48 Sym. Ops., with inversion, found (24 have fractional translation)



   Cartesian axes

     site n.     atom                  positions (alat units)
         1           Sn  tau(   1) = (   0.0000000   0.0000000   0.0000000  )
         2           Sn  tau(   2) = (   0.2500000   0.2500000   0.2500000  )

     number of k points=    28
                       cart. coord. in units 2pi/alat
        k(    1) = (  -0.0833333   0.0833333   0.0833333), wk =   0.0185185
        k(    2) = (  -0.2500000   0.2500000  -0.0833333), wk =   0.0555556
        k(    3) = (  -0.4166667   0.4166667  -0.2500000), wk =   0.0555556
        k(    4) = (   0.4166667  -0.4166667   0.5833333), wk =   0.0555556
        k(    5) = (   0.2500000  -0.2500000   0.4166667), wk =   0.0555556
        k(    6) = (   0.0833333  -0.0833333   0.2500000), wk =   0.0555556
        k(    7) = (  -0.0833333   0.4166667   0.0833333), wk =   0.0555556
        k(    8) = (  -0.2500000   0.5833333  -0.0833333), wk =   0.1111111
        k(    9) = (   0.5833333  -0.2500000   0.7500000), wk =   0.1111111
        k(   10) = (   0.4166667  -0.0833333   0.5833333), wk =   0.1111111
        k(   11) = (   0.2500000   0.0833333   0.4166667), wk =   0.1111111
        k(   12) = (  -0.0833333   0.7500000   0.0833333), wk =   0.0555556
        k(   13) = (   0.7500000  -0.0833333   0.9166667), wk =   0.1111111
        k(   14) = (   0.5833333   0.0833333   0.7500000), wk =   0.1111111
        k(   15) = (   0.4166667   0.2500000   0.5833333), wk =   0.1111111
        k(   16) = (  -0.0833333  -0.9166667   0.0833333), wk =   0.0555556
        k(   17) = (  -0.2500000  -0.7500000  -0.0833333), wk =   0.1111111
        k(   18) = (  -0.0833333  -0.5833333   0.0833333), wk =   0.0555556
        k(   19) = (  -0.2500000   0.2500000   0.2500000), wk =   0.0185185
        k(   20) = (  -0.4166667   0.4166667   0.0833333), wk =   0.0555556
        k(   21) = (   0.4166667  -0.4166667   0.9166667), wk =   0.0555556
        k(   22) = (   0.2500000  -0.2500000   0.7500000), wk =   0.0555556
        k(   23) = (  -0.2500000   0.5833333   0.2500000), wk =   0.0555556
        k(   24) = (   0.5833333  -0.2500000   1.0833333), wk =   0.1111111
        k(   25) = (   0.4166667  -0.0833333   0.9166667), wk =   0.1111111
        k(   26) = (  -0.2500000  -1.0833333   0.2500000), wk =   0.0555556
        k(   27) = (  -0.4166667   0.4166667   0.4166667), wk =   0.0185185
        k(   28) = (   0.4166667  -0.4166667   1.2500000), wk =   0.0555556

     Dense  grid:    63903 G-vectors     FFT dimensions: (  60,  60,  60)

     Smooth grid:    22419 G-vectors     FFT dimensions: (  40,  40,  40)

     Estimated max dynamical RAM per process >      16.08MB

     Estimated total allocated dynamical RAM >      64.33MB

     Initial potential from superposition of free atoms

     starting charge   25.99991, renormalised to   28.00000
     Starting wfc are   18 randomized atomic wfcs

     total cpu time spent up to now is        0.9 secs

     per-process dynamical memory:    19.9 Mb

     Self-consistent Calculation

     iteration #  1     ecut=    50.00 Ry     beta=0.70
     Davidson diagonalization with overlap
     ethr =  1.00E-02,  avg # of iterations =  2.8

     total cpu time spent up to now is        2.4 secs

     total energy              =    -317.48983004 Ry
     Harris-Foulkes estimate   =    -319.53778276 Ry
     estimated scf accuracy    <       2.49573421 Ry

     iteration #  2     ecut=    50.00 Ry     beta=0.70
     Davidson diagonalization with overlap
     ethr =  8.91E-03,  avg # of iterations =  3.0

     total cpu time spent up to now is        4.0 secs

     total energy              =    -318.39261080 Ry
     Harris-Foulkes estimate   =    -318.70946748 Ry
     estimated scf accuracy    <       0.47266793 Ry

     iteration #  3     ecut=    50.00 Ry     beta=0.70
     Davidson diagonalization with overlap
     ethr =  1.69E-03,  avg # of iterations =  2.0

     total cpu time spent up to now is        5.2 secs

     total energy              =    -318.48720797 Ry
     Harris-Foulkes estimate   =    -318.48878609 Ry
     estimated scf accuracy    <       0.00289363 Ry

     iteration #  4     ecut=    50.00 Ry     beta=0.70
     Davidson diagonalization with overlap
     ethr =  1.03E-05,  avg # of iterations =  3.1

     total cpu time spent up to now is        6.5 secs

     total energy              =    -318.48810755 Ry
     Harris-Foulkes estimate   =    -318.48822573 Ry
     estimated scf accuracy    <       0.00017563 Ry

     iteration #  5     ecut=    50.00 Ry     beta=0.70
     Davidson diagonalization with overlap
     ethr =  6.27E-07,  avg # of iterations =  3.0

     total cpu time spent up to now is        7.8 secs

     total energy              =    -318.48816014 Ry
     Harris-Foulkes estimate   =    -318.48816070 Ry
     estimated scf accuracy    <       0.00000129 Ry

     iteration #  6     ecut=    50.00 Ry     beta=0.70
     Davidson diagonalization with overlap
     ethr =  4.61E-09,  avg # of iterations =  3.9

     total cpu time spent up to now is        9.2 secs

     total energy              =    -318.48816091 Ry
     Harris-Foulkes estimate   =    -318.48816097 Ry
     estimated scf accuracy    <       0.00000009 Ry

     iteration #  7     ecut=    50.00 Ry     beta=0.70
     Davidson diagonalization with overlap
     ethr =  3.34E-10,  avg # of iterations =  3.0

     total cpu time spent up to now is       10.5 secs

     End of self-consistent calculation

          k =-0.0833 0.0833 0.0833 (  2770 PWs)   bands (ev):

   -14.1054 -14.1054 -14.0985 -14.0376 -14.0376 -13.7686 -13.7686 -13.7572
   -13.7362 -13.7362  -2.8324   5.9352   7.5020   7.5020

          k =-0.2500 0.2500-0.0833 (  2816 PWs)   bands (ev):

   -14.1247 -14.1186 -14.0907 -14.0196 -14.0075 -13.8044 -13.7906 -13.7566
   -13.7284 -13.7116  -2.4889   4.1938   6.4019   7.2560

          k =-0.4167 0.4167-0.2500 (  2824 PWs)   bands (ev):

   -14.1368 -14.1361 -14.0705 -13.9968 -13.9834 -13.8237 -13.8071 -13.7872
   -13.7042 -13.7005  -1.7269   2.1566   5.8814   6.6616

          k = 0.4167-0.4167 0.5833 (  2828 PWs)   bands (ev):

   -14.1435 -14.1362 -14.0652 -13.9847 -13.9832 -13.8234 -13.8172 -13.7943
   -13.7019 -13.6948  -1.2871   1.3709   5.8697   6.3415

          k = 0.2500-0.2500 0.4167 (  2831 PWs)   bands (ev):

   -14.1362 -14.1277 -14.0807 -14.0026 -13.9870 -13.8289 -13.7979 -13.7725
   -13.7144 -13.7017  -2.0074   2.7729   6.2919   6.4431

          k = 0.0833-0.0833 0.2500 (  2798 PWs)   bands (ev):

   -14.1159 -14.1109 -14.0996 -14.0297 -14.0151 -13.8042 -13.7692 -13.7510
   -13.7361 -13.7211  -2.6583   4.9413   6.9442   6.9727

          k =-0.0833 0.4167 0.0833 (  2815 PWs)   bands (ev):

   -14.1267 -14.1213 -14.0994 -14.0124 -13.9793 -13.8489 -13.7822 -13.7423
   -13.7254 -13.7126  -2.3128   3.8266   6.2334   6.3142

          k =-0.2500 0.5833-0.0833 (  2810 PWs)   bands (ev):

   -14.1463 -14.1390 -14.0686 -13.9849 -13.9445 -13.8838 -13.8108 -13.7738
   -13.7007 -13.6910  -1.6628   2.3869   5.2279   5.9580

          k = 0.5833-0.2500 0.7500 (  2818 PWs)   bands (ev):

   -14.1625 -14.1462 -14.0346 -13.9604 -13.9442 -13.8764 -13.8427 -13.8107
   -13.6896 -13.6731  -0.9280   1.2057   4.6935   5.7912

          k = 0.4167-0.0833 0.5833 (  2815 PWs)   bands (ev):

   -14.1549 -14.1452 -14.0426 -13.9825 -13.9488 -13.8669 -13.8183 -13.8101
   -13.6900 -13.6832  -1.3973   1.9098   4.7525   6.1598

          k = 0.2500 0.0833 0.4167 (  2818 PWs)   bands (ev):

   -14.1345 -14.1287 -14.0818 -14.0072 -13.9812 -13.8395 -13.7936 -13.7648
   -13.7159 -13.7020  -2.1541   3.2984   5.7656   6.6712

          k =-0.0833 0.7500 0.0833 (  2817 PWs)   bands (ev):

   -14.1478 -14.1431 -14.0682 -13.9528 -13.9476 -13.8899 -13.8398 -13.7689
   -13.6938 -13.6888  -1.1353   1.6242   5.2038   5.4192

          k = 0.7500-0.0833 0.9167 (  2825 PWs)   bands (ev):

   -14.1621 -14.1530 -14.0197 -13.9714 -13.9174 -13.8780 -13.8650 -13.8189
   -13.6813 -13.6723  -0.2914   0.5991   4.6423   5.1522

          k = 0.5833 0.0833 0.7500 (  2816 PWs)   bands (ev):

   -14.1691 -14.1511 -14.0181 -13.9385 -13.9194 -13.9032 -13.8692 -13.8217
   -13.6830 -13.6656  -0.6171   0.9544   4.2935   5.5768

          k = 0.4167 0.2500 0.5833 (  2822 PWs)   bands (ev):

   -14.1506 -14.1398 -14.0544 -13.9836 -13.9669 -13.8459 -13.8174 -13.8001
   -13.6979 -13.6869  -1.3446   1.6187   5.2941   6.2199

          k =-0.0833-0.9167 0.0833 (  2824 PWs)   bands (ev):

   -14.1533 -14.1485 -14.0366 -13.9942 -13.9154 -13.8766 -13.8451 -13.8024
   -13.6857 -13.6811  -0.3291   0.6036   4.9900   5.2303

          k =-0.2500-0.7500-0.0833 (  2822 PWs)   bands (ev):

   -14.1565 -14.1477 -14.0478 -13.9537 -13.9305 -13.9032 -13.8417 -13.7918
   -13.6886 -13.6795  -1.0310   1.4780   4.8439   5.4264

          k =-0.0833-0.5833 0.0833 (  2821 PWs)   bands (ev):

   -14.1382 -14.1334 -14.0895 -13.9860 -13.9359 -13.8979 -13.8072 -13.7471
   -13.7090 -13.7015  -1.8018   2.7093   5.6247   5.7879

          k =-0.2500 0.2500 0.2500 (  2809 PWs)   bands (ev):

   -14.1241 -14.1241 -14.0884 -14.0085 -14.0085 -13.7981 -13.7981 -13.7709
   -13.7147 -13.7147  -2.3262   3.5369   6.9105   6.9105

          k =-0.4167 0.4167 0.0833 (  2817 PWs)   bands (ev):

   -14.1424 -14.1393 -14.0606 -13.9996 -13.9723 -13.8368 -13.8099 -13.7903
   -13.6995 -13.6955  -1.8437   2.6090   5.1989   6.7328

          k = 0.4167-0.4167 0.9167 (  2818 PWs)   bands (ev):

   -14.1645 -14.1467 -14.0291 -13.9645 -13.9412 -13.8616 -13.8577 -13.8164
   -13.6873 -13.6720  -1.0325   1.4119   4.4107   6.0848

          k = 0.2500-0.2500 0.7500 (  2816 PWs)   bands (ev):

   -14.1619 -14.1435 -14.0451 -13.9547 -13.9282 -13.9023 -13.8419 -13.7966
   -13.6926 -13.6735  -0.9817   1.3421   4.7172   5.7001

          k =-0.2500 0.5833 0.2500 (  2817 PWs)   bands (ev):

   -14.1500 -14.1352 -14.0658 -13.9840 -13.9577 -13.8665 -13.8133 -13.7796
   -13.7048 -13.6868  -1.5481   2.0391   5.4121   6.0143

          k = 0.5833-0.2500 1.0833 (  2817 PWs)   bands (ev):

   -14.1638 -14.1528 -14.0225 -13.9546 -13.9189 -13.9053 -13.8489 -13.8193
   -13.6820 -13.6717  -0.8436   1.2292   4.4937   5.4625

          k = 0.4167-0.0833 0.9167 (  2811 PWs)   bands (ev):

   -14.1673 -14.1592 -13.9974 -13.9451 -13.9217 -13.8880 -13.8787 -13.8385
   -13.6746 -13.6666  -0.2510   0.5915   4.4309   4.9835

          k =-0.2500-1.0833 0.2500 (  2830 PWs)   bands (ev):

   -14.1688 -14.1487 -14.0249 -13.9380 -13.9218 -13.8963 -13.8755 -13.8148
   -13.6856 -13.6657  -0.4128   0.7273   4.3370   5.5359

          k =-0.4167 0.4167 0.4167 (  2827 PWs)   bands (ev):

   -14.1339 -14.1339 -14.0768 -13.9911 -13.9911 -13.8122 -13.8122 -13.7844
   -13.7050 -13.7050  -1.5208   1.6750   6.5209   6.5209

          k = 0.4167-0.4167 1.2500 (  2829 PWs)   bands (ev):

   -14.1566 -14.1423 -14.0443 -13.9732 -13.9643 -13.8407 -13.8384 -13.8086
   -13.6939 -13.6810  -1.1105   1.3152   4.9916   6.1793

     highest occupied level (ev):     7.5020

!    total energy              =    -318.48816094 Ry
     Harris-Foulkes estimate   =    -318.48816094 Ry
     estimated scf accuracy    <          1.8E-09 Ry

     The total energy is the sum of the following terms:

     one-electron contribution =    -157.44447779 Ry
     hartree contribution      =      95.81081950 Ry
     xc contribution           =     -86.01106954 Ry
     ewald contribution        =    -170.84343312 Ry

     convergence has been achieved in   7 iterations


     Computing stress (Cartesian axis) and pressure

          total   stress  (Ry/bohr**3)                   (kbar)     P=    1.87
   0.00001271  -0.00000000   0.00000000          1.87     -0.00      0.00
  -0.00000000   0.00001271   0.00000000         -0.00      1.87      0.00
   0.00000000  -0.00000000   0.00001271          0.00     -0.00      1.87


     Writing output data file sn.a.12.36.6.save

     init_run     :      0.81s CPU      0.84s WALL (       1 calls)
     electrons    :      9.11s CPU      9.63s WALL (       1 calls)
     stress       :      0.72s CPU      0.75s WALL (       1 calls)

     Called by init_run:
     wfcinit      :      0.34s CPU      0.36s WALL (       1 calls)
     potinit      :      0.06s CPU      0.06s WALL (       1 calls)

     Called by electrons:
     c_bands      :      6.65s CPU      6.99s WALL (       7 calls)
     sum_band     :      1.62s CPU      1.75s WALL (       7 calls)
     v_of_rho     :      0.37s CPU      0.38s WALL (       8 calls)
     newd         :      0.51s CPU      0.56s WALL (       8 calls)
     mix_rho      :      0.03s CPU      0.03s WALL (       7 calls)

     Called by c_bands:
     init_us_2    :      0.18s CPU      0.19s WALL (     448 calls)
     cegterg      :      6.32s CPU      6.65s WALL (     196 calls)

     Called by sum_band:
     sum_band:bec :      0.00s CPU      0.00s WALL (     196 calls)
     addusdens    :      0.54s CPU      0.64s WALL (       7 calls)

     Called by *egterg:
     h_psi        :      5.48s CPU      5.79s WALL (     806 calls)
     s_psi        :      0.10s CPU      0.10s WALL (     806 calls)
     g_psi        :      0.03s CPU      0.03s WALL (     582 calls)
     cdiaghg      :      0.35s CPU      0.36s WALL (     778 calls)

     Called by h_psi:
     h_psi:pot    :      5.44s CPU      5.74s WALL (     806 calls)
     h_psi:calbec :      0.23s CPU      0.23s WALL (     806 calls)
     vloc_psi     :      5.07s CPU      5.36s WALL (     806 calls)
     add_vuspsi   :      0.13s CPU      0.15s WALL (     806 calls)

     General routines
     calbec       :      0.29s CPU      0.29s WALL (    1030 calls)
     fft          :      0.24s CPU      0.25s WALL (     138 calls)
     ffts         :      0.01s CPU      0.01s WALL (      15 calls)
     fftw         :      4.73s CPU      4.97s WALL (   21302 calls)
     interpolate  :      0.04s CPU      0.04s WALL (      15 calls)
     davcio       :      0.00s CPU      0.01s WALL (      28 calls)

     Parallel routines
     fft_scatter  :      0.98s CPU      1.13s WALL (   21455 calls)

     PWSCF        :    10.76s CPU        11.36s WALL


   This run was terminated on:   1:33:55  23Nov2017            

=------------------------------------------------------------------------------=
   JOB DONE.
=------------------------------------------------------------------------------=
