
     Program PWSCF v.6.1 (svn rev. 13369) starts on 23Nov2017 at  1:33:56 

     This program is part of the open-source Quantum ESPRESSO suite
     for quantum simulation of materials; please cite
         "P. Giannozzi et al., J. Phys.:Condens. Matter 21 395502 (2009);
          URL http://www.quantum-espresso.org", 
     in publications or presentations arising from this work. More details at
     http://www.quantum-espresso.org/quote

     Parallel version (MPI), running on     4 processors
     R & G space division:  proc/nbgrp/npool/nimage =       4
     Waiting for input...
     Reading input from standard input
     Message from routine read_cards :
     DEPRECATED: no units specified in ATOMIC_POSITIONS card
     Message from routine read_cards :
     ATOMIC_POSITIONS: units set to alat

     Current dimensions of program PWSCF are:
     Max number of different atomic species (ntypx) = 10
     Max number of k-points (npk) =  40000
     Max angular momentum in pseudopotentials (lmaxx) =  3

     Subspace diagonalization in iterative solution of the eigenvalue problem:
     a serial algorithm will be used


     Parallelization info
     --------------------
     sticks:   dense  smooth     PW     G-vecs:    dense   smooth      PW
     Min         526     261     78                15974     5604     941
     Max         527     262     79                15977     5605     943
     Sum        2107    1045    313                63903    22419    3767



     bravais-lattice index     =            2
     lattice parameter (alat)  =      12.3600  a.u.
     unit-cell volume          =     472.0581 (a.u.)^3
     number of atoms/cell      =            2
     number of atomic types    =            1
     number of electrons       =        28.00
     number of Kohn-Sham states=           14
     kinetic-energy cutoff     =      50.0000  Ry
     charge density cutoff     =     400.0000  Ry
     convergence threshold     =      1.0E-08
     mixing beta               =       0.7000
     number of iterations used =            8  plain     mixing
     Exchange-correlation      =  SLA  PW   PBX  PBC ( 1  4  3  4 0 0)

     celldm(1)=  12.360000  celldm(2)=   0.000000  celldm(3)=   0.000000
     celldm(4)=   0.000000  celldm(5)=   0.000000  celldm(6)=   0.000000

     crystal axes: (cart. coord. in units of alat)
               a(1) = (  -0.500000   0.000000   0.500000 )  
               a(2) = (   0.000000   0.500000   0.500000 )  
               a(3) = (  -0.500000   0.500000   0.000000 )  

     reciprocal axes: (cart. coord. in units 2 pi/alat)
               b(1) = ( -1.000000 -1.000000  1.000000 )  
               b(2) = (  1.000000  1.000000  1.000000 )  
               b(3) = ( -1.000000  1.000000 -1.000000 )  


     PseudoPot. # 1 for Sn read from file:
     /home/s1333534/quantum_espresso/qe-6.1/pseudo/sn_pbe_v1.4.uspp.F.UPF
     MD5 check sum: 469debedee59599fedebd795477fea03
     Pseudo is Ultrasoft + core correction, Zval = 14.0
     Generated by new atomic code, or converted to UPF format
     Using radial grid of  891 points,  6 beta functions with: 
                l(1) =   0
                l(2) =   0
                l(3) =   1
                l(4) =   1
                l(5) =   2
                l(6) =   2
     Q(r) pseudized with  8 coefficients,  rinner =    1.350   1.350   1.350
                                                       1.350   1.350

     atomic species   valence    mass     pseudopotential
        Sn            14.00   118.71000     Sn( 1.00)

     48 Sym. Ops., with inversion, found (24 have fractional translation)



   Cartesian axes

     site n.     atom                  positions (alat units)
         1           Sn  tau(   1) = (   0.0000000   0.0000000   0.0000000  )
         2           Sn  tau(   2) = (   0.2500000   0.2500000   0.2500000  )

     number of k points=    60
                       cart. coord. in units 2pi/alat
        k(    1) = (  -0.0625000   0.0625000   0.0625000), wk =   0.0078125
        k(    2) = (  -0.1875000   0.1875000  -0.0625000), wk =   0.0234375
        k(    3) = (  -0.3125000   0.3125000  -0.1875000), wk =   0.0234375
        k(    4) = (  -0.4375000   0.4375000  -0.3125000), wk =   0.0234375
        k(    5) = (   0.4375000  -0.4375000   0.5625000), wk =   0.0234375
        k(    6) = (   0.3125000  -0.3125000   0.4375000), wk =   0.0234375
        k(    7) = (   0.1875000  -0.1875000   0.3125000), wk =   0.0234375
        k(    8) = (   0.0625000  -0.0625000   0.1875000), wk =   0.0234375
        k(    9) = (  -0.0625000   0.3125000   0.0625000), wk =   0.0234375
        k(   10) = (  -0.1875000   0.4375000  -0.0625000), wk =   0.0468750
        k(   11) = (  -0.3125000   0.5625000  -0.1875000), wk =   0.0468750
        k(   12) = (   0.5625000  -0.3125000   0.6875000), wk =   0.0468750
        k(   13) = (   0.4375000  -0.1875000   0.5625000), wk =   0.0468750
        k(   14) = (   0.3125000  -0.0625000   0.4375000), wk =   0.0468750
        k(   15) = (   0.1875000   0.0625000   0.3125000), wk =   0.0468750
        k(   16) = (  -0.0625000   0.5625000   0.0625000), wk =   0.0234375
        k(   17) = (  -0.1875000   0.6875000  -0.0625000), wk =   0.0468750
        k(   18) = (   0.6875000  -0.1875000   0.8125000), wk =   0.0468750
        k(   19) = (   0.5625000  -0.0625000   0.6875000), wk =   0.0468750
        k(   20) = (   0.4375000   0.0625000   0.5625000), wk =   0.0468750
        k(   21) = (   0.3125000   0.1875000   0.4375000), wk =   0.0468750
        k(   22) = (  -0.0625000   0.8125000   0.0625000), wk =   0.0234375
        k(   23) = (   0.8125000  -0.0625000   0.9375000), wk =   0.0468750
        k(   24) = (   0.6875000   0.0625000   0.8125000), wk =   0.0468750
        k(   25) = (   0.5625000   0.1875000   0.6875000), wk =   0.0468750
        k(   26) = (   0.4375000   0.3125000   0.5625000), wk =   0.0468750
        k(   27) = (  -0.0625000  -0.9375000   0.0625000), wk =   0.0234375
        k(   28) = (  -0.1875000  -0.8125000  -0.0625000), wk =   0.0468750
        k(   29) = (  -0.3125000  -0.6875000  -0.1875000), wk =   0.0468750
        k(   30) = (  -0.0625000  -0.6875000   0.0625000), wk =   0.0234375
        k(   31) = (  -0.1875000  -0.5625000  -0.0625000), wk =   0.0468750
        k(   32) = (  -0.0625000  -0.4375000   0.0625000), wk =   0.0234375
        k(   33) = (  -0.1875000   0.1875000   0.1875000), wk =   0.0078125
        k(   34) = (  -0.3125000   0.3125000   0.0625000), wk =   0.0234375
        k(   35) = (  -0.4375000   0.4375000  -0.0625000), wk =   0.0234375
        k(   36) = (   0.4375000  -0.4375000   0.8125000), wk =   0.0234375
        k(   37) = (   0.3125000  -0.3125000   0.6875000), wk =   0.0234375
        k(   38) = (   0.1875000  -0.1875000   0.5625000), wk =   0.0234375
        k(   39) = (  -0.1875000   0.4375000   0.1875000), wk =   0.0234375
        k(   40) = (  -0.3125000   0.5625000   0.0625000), wk =   0.0468750
        k(   41) = (   0.5625000  -0.3125000   0.9375000), wk =   0.0468750
        k(   42) = (   0.4375000  -0.1875000   0.8125000), wk =   0.0468750
        k(   43) = (   0.3125000  -0.0625000   0.6875000), wk =   0.0468750
        k(   44) = (  -0.1875000   0.6875000   0.1875000), wk =   0.0234375
        k(   45) = (   0.6875000  -0.1875000   1.0625000), wk =   0.0468750
        k(   46) = (   0.5625000  -0.0625000   0.9375000), wk =   0.0468750
        k(   47) = (   0.4375000   0.0625000   0.8125000), wk =   0.0468750
        k(   48) = (  -0.1875000  -1.0625000   0.1875000), wk =   0.0234375
        k(   49) = (  -0.3125000  -0.9375000   0.0625000), wk =   0.0468750
        k(   50) = (  -0.1875000  -0.8125000   0.1875000), wk =   0.0234375
        k(   51) = (  -0.3125000   0.3125000   0.3125000), wk =   0.0078125
        k(   52) = (  -0.4375000   0.4375000   0.1875000), wk =   0.0234375
        k(   53) = (   0.4375000  -0.4375000   1.0625000), wk =   0.0234375
        k(   54) = (   0.3125000  -0.3125000   0.9375000), wk =   0.0234375
        k(   55) = (  -0.3125000   0.5625000   0.3125000), wk =   0.0234375
        k(   56) = (   0.5625000  -0.3125000   1.1875000), wk =   0.0468750
        k(   57) = (   0.4375000  -0.1875000   1.0625000), wk =   0.0468750
        k(   58) = (  -0.3125000  -1.1875000   0.3125000), wk =   0.0234375
        k(   59) = (  -0.4375000   0.4375000   0.4375000), wk =   0.0078125
        k(   60) = (   0.4375000  -0.4375000   1.3125000), wk =   0.0234375

     Dense  grid:    63903 G-vectors     FFT dimensions: (  60,  60,  60)

     Smooth grid:    22419 G-vectors     FFT dimensions: (  40,  40,  40)

     Estimated max dynamical RAM per process >      20.90MB

     Estimated total allocated dynamical RAM >      83.58MB

     Initial potential from superposition of free atoms

     starting charge   25.99991, renormalised to   28.00000
     Starting wfc are   18 randomized atomic wfcs

     total cpu time spent up to now is        1.3 secs

     per-process dynamical memory:    25.0 Mb

     Self-consistent Calculation

     iteration #  1     ecut=    50.00 Ry     beta=0.70
     Davidson diagonalization with overlap
     ethr =  1.00E-02,  avg # of iterations =  2.8

     total cpu time spent up to now is        3.8 secs

     total energy              =    -317.48982858 Ry
     Harris-Foulkes estimate   =    -319.53783990 Ry
     estimated scf accuracy    <       2.49580885 Ry

     iteration #  2     ecut=    50.00 Ry     beta=0.70
     Davidson diagonalization with overlap
     ethr =  8.91E-03,  avg # of iterations =  3.0

     total cpu time spent up to now is        6.5 secs

     total energy              =    -318.39267561 Ry
     Harris-Foulkes estimate   =    -318.70967632 Ry
     estimated scf accuracy    <       0.47283712 Ry

     iteration #  3     ecut=    50.00 Ry     beta=0.70
     Davidson diagonalization with overlap
     ethr =  1.69E-03,  avg # of iterations =  2.0

     total cpu time spent up to now is        8.9 secs

     total energy              =    -318.48730742 Ry
     Harris-Foulkes estimate   =    -318.48888145 Ry
     estimated scf accuracy    <       0.00288391 Ry

     iteration #  4     ecut=    50.00 Ry     beta=0.70
     Davidson diagonalization with overlap
     ethr =  1.03E-05,  avg # of iterations =  3.0

     total cpu time spent up to now is       11.5 secs

     total energy              =    -318.48820254 Ry
     Harris-Foulkes estimate   =    -318.48832165 Ry
     estimated scf accuracy    <       0.00017701 Ry

     iteration #  5     ecut=    50.00 Ry     beta=0.70
     Davidson diagonalization with overlap
     ethr =  6.32E-07,  avg # of iterations =  3.0

     total cpu time spent up to now is       14.2 secs

     total energy              =    -318.48825638 Ry
     Harris-Foulkes estimate   =    -318.48825704 Ry
     estimated scf accuracy    <       0.00000143 Ry

     iteration #  6     ecut=    50.00 Ry     beta=0.70
     Davidson diagonalization with overlap
     ethr =  5.12E-09,  avg # of iterations =  4.0

     total cpu time spent up to now is       16.9 secs

     total energy              =    -318.48825713 Ry
     Harris-Foulkes estimate   =    -318.48825719 Ry
     estimated scf accuracy    <       0.00000009 Ry

     iteration #  7     ecut=    50.00 Ry     beta=0.70
     Davidson diagonalization with overlap
     ethr =  3.38E-10,  avg # of iterations =  3.1

     total cpu time spent up to now is       19.5 secs

     End of self-consistent calculation

          k =-0.0625 0.0625 0.0625 (  2770 PWs)   bands (ev):

   -14.1037 -14.1037 -14.0996 -14.0409 -14.0409 -13.7648 -13.7648 -13.7566
   -13.7401 -13.7401  -2.8614   6.2164   7.5576   7.5576

          k =-0.1875 0.1875-0.0625 (  2797 PWs)   bands (ev):

   -14.1176 -14.1117 -14.0963 -14.0284 -14.0209 -13.7914 -13.7813 -13.7529
   -13.7355 -13.7199  -2.6661   4.9158   6.8268   7.4125

          k =-0.3125 0.3125-0.1875 (  2826 PWs)   bands (ev):

   -14.1303 -14.1269 -14.0843 -14.0087 -13.9975 -13.8127 -13.7991 -13.7710
   -13.7166 -13.7073  -2.2006   3.2268   6.3164   6.9617

          k =-0.4375 0.4375-0.3125 (  2823 PWs)   bands (ev):

   -14.1369 -14.1362 -14.0722 -13.9940 -13.9855 -13.8204 -13.8095 -13.7885
   -13.7038 -13.7019  -1.5813   1.8357   6.0658   6.5803

          k = 0.4375-0.4375 0.5625 (  2830 PWs)   bands (ev):

   -14.1406 -14.1361 -14.0693 -13.9870 -13.9863 -13.8189 -13.8160 -13.7925
   -13.7029 -13.6987  -1.3033   1.3587   6.0707   6.3951

          k = 0.3125-0.3125 0.4375 (  2826 PWs)   bands (ev):

   -14.1373 -14.1312 -14.0768 -13.9974 -13.9876 -13.8237 -13.8050 -13.7804
   -13.7102 -13.7012  -1.7870   2.2373   6.3137   6.4456

          k = 0.1875-0.1875 0.3125 (  2814 PWs)   bands (ev):

   -14.1272 -14.1209 -14.0904 -14.0152 -14.0028 -13.8131 -13.7874 -13.7643
   -13.7222 -13.7112  -2.3817   3.7796   6.7298   6.7498

          k = 0.0625-0.0625 0.1875 (  2787 PWs)   bands (ev):

   -14.1107 -14.1072 -14.1005 -14.0360 -14.0269 -13.7898 -13.7646 -13.7527
   -13.7408 -13.7271  -2.7631   5.4827   7.1836   7.2273

          k =-0.0625 0.3125 0.0625 (  2802 PWs)   bands (ev):

   -14.1182 -14.1138 -14.1029 -14.0260 -14.0029 -13.8214 -13.7703 -13.7443
   -13.7357 -13.7198  -2.5672   4.6262   6.6869   6.6975

          k =-0.1875 0.4375-0.0625 (  2817 PWs)   bands (ev):

   -14.1330 -14.1271 -14.0891 -14.0076 -13.9762 -13.8504 -13.7896 -13.7556
   -13.7190 -13.7052  -2.1866   3.4432   5.8635   6.4534

          k =-0.3125 0.5625-0.1875 (  2817 PWs)   bands (ev):

   -14.1492 -14.1372 -14.0636 -13.9875 -13.9603 -13.8623 -13.8114 -13.7845
   -13.7029 -13.6887  -1.5907   2.1132   5.3426   6.1314

          k = 0.5625-0.3125 0.6875 (  2820 PWs)   bands (ev):

   -14.1565 -14.1423 -14.0463 -13.9725 -13.9639 -13.8507 -13.8313 -13.8057
   -13.6951 -13.6811  -1.0999   1.2945   5.0729   6.0591

          k = 0.4375-0.1875 0.5625 (  2821 PWs)   bands (ev):

   -14.1524 -14.1423 -14.0498 -13.9854 -13.9623 -13.8497 -13.8164 -13.8073
   -13.6948 -13.6865  -1.3890   1.7537   5.0690   6.2811

          k = 0.3125-0.0625 0.4375 (  2822 PWs)   bands (ev):

   -14.1385 -14.1356 -14.0720 -14.0034 -13.9759 -13.8419 -13.8014 -13.7766
   -13.7081 -13.6983  -2.0109   2.9784   5.4298   6.6965

          k = 0.1875 0.0625 0.3125 (  2804 PWs)   bands (ev):

   -14.1252 -14.1185 -14.0932 -14.0203 -14.0020 -13.8173 -13.7830 -13.7533
   -13.7298 -13.7118  -2.4733   4.1957   6.3361   7.0109

          k =-0.0625 0.5625 0.0625 (  2831 PWs)   bands (ev):

   -14.1354 -14.1322 -14.0947 -13.9904 -13.9409 -13.8938 -13.8036 -13.7420
   -13.7118 -13.7067  -1.8906   2.8909   5.7388   5.8324

          k =-0.1875 0.6875-0.0625 (  2817 PWs)   bands (ev):

   -14.1493 -14.1432 -14.0669 -13.9664 -13.9225 -13.9126 -13.8283 -13.7722
   -13.6956 -13.6886  -1.3473   1.9294   5.1388   5.5548

          k = 0.6875-0.1875 0.8125 (  2823 PWs)   bands (ev):

   -14.1655 -14.1486 -14.0325 -13.9436 -13.9251 -13.9067 -13.8555 -13.8088
   -13.6873 -13.6701  -0.7361   1.0772   4.5270   5.5223

          k = 0.5625-0.0625 0.6875 (  2815 PWs)   bands (ev):

   -14.1682 -14.1499 -14.0225 -13.9497 -13.9285 -13.8873 -13.8644 -13.8197
   -13.6850 -13.6677  -0.8021   1.1613   4.2980   5.7921

          k = 0.4375 0.0625 0.5625 (  2816 PWs)   bands (ev):

   -14.1555 -14.1453 -14.0417 -13.9845 -13.9508 -13.8625 -13.8186 -13.8134
   -13.6900 -13.6837  -1.4213   1.9525   4.7053   6.2554

          k = 0.3125 0.1875 0.4375 (  2825 PWs)   bands (ev):

   -14.1389 -14.1319 -14.0751 -14.0012 -13.9817 -13.8342 -13.8014 -13.7773
   -13.7106 -13.6993  -1.9344   2.6611   5.8361   6.5976

          k =-0.0625 0.8125 0.0625 (  2821 PWs)   bands (ev):

   -14.1489 -14.1459 -14.0604 -13.9685 -13.9393 -13.8711 -13.8534 -13.7781
   -13.6904 -13.6875  -0.8586   1.2418   5.1745   5.3096

          k = 0.8125-0.0625 0.9375 (  2826 PWs)   bands (ev):

   -14.1584 -14.1519 -14.0237 -13.9891 -13.9118 -13.8824 -13.8498 -13.8159
   -13.6829 -13.6766  -0.2027   0.4840   4.8074   5.1501

          k = 0.6875 0.0625 0.8125 (  2825 PWs)   bands (ev):

   -14.1692 -14.1516 -14.0185 -13.9415 -13.9188 -13.8931 -13.8800 -13.8211
   -13.6833 -13.6657  -0.3349   0.6519   4.3336   5.4033

          k = 0.5625 0.1875 0.6875 (  2819 PWs)   bands (ev):

   -14.1641 -14.1470 -14.0319 -13.9590 -13.9457 -13.8713 -13.8493 -13.8143
   -13.6889 -13.6724  -0.9070   1.1881   4.5880   5.8811

          k = 0.4375 0.3125 0.5625 (  2825 PWs)   bands (ev):

   -14.1465 -14.1381 -14.0611 -13.9863 -13.9767 -13.8323 -13.8160 -13.7976
   -13.7007 -13.6923  -1.3402   1.5122   5.6146   6.3248

          k =-0.0625-0.9375 0.0625 (  2822 PWs)   bands (ev):

   -14.1518 -14.1492 -14.0345 -14.0029 -13.9107 -13.8817 -13.8374 -13.8054
   -13.6855 -13.6830  -0.2242   0.4811   5.0593   5.2023

          k =-0.1875-0.8125-0.0625 (  2824 PWs)   bands (ev):

   -14.1553 -14.1488 -14.0475 -13.9572 -13.9400 -13.8806 -13.8545 -13.7918
   -13.6873 -13.6808  -0.8073   1.1899   4.9194   5.2854

          k =-0.3125-0.6875-0.1875 (  2819 PWs)   bands (ev):

   -14.1585 -14.1432 -14.0493 -13.9675 -13.9372 -13.8908 -13.8310 -13.7948
   -13.6946 -13.6783  -1.1826   1.5846   4.8832   5.7637

          k =-0.0625-0.6875 0.0625 (  2823 PWs)   bands (ev):

   -14.1431 -14.1402 -14.0806 -13.9664 -13.9317 -13.9060 -13.8270 -13.7562
   -13.6994 -13.6962  -1.4166   2.0493   5.4026   5.5216

          k =-0.1875-0.5625-0.0625 (  2816 PWs)   bands (ev):

   -14.1416 -14.1357 -14.0807 -13.9893 -13.9458 -13.8857 -13.8060 -13.7601
   -13.7065 -13.6975  -1.8095   2.6843   5.4574   5.9509

          k =-0.0625-0.4375 0.0625 (  2823 PWs)   bands (ev):

   -14.1267 -14.1228 -14.1021 -14.0106 -13.9740 -13.8566 -13.7841 -13.7380
   -13.7247 -13.7150  -2.2755   3.7543   6.1735   6.2313

          k =-0.1875 0.1875 0.1875 (  2803 PWs)   bands (ev):

   -14.1183 -14.1183 -14.0933 -14.0198 -14.0198 -13.7888 -13.7888 -13.7652
   -13.7217 -13.7217  -2.5709   4.4190   7.1319   7.1319

          k =-0.3125 0.3125 0.0625 (  2824 PWs)   bands (ev):

   -14.1317 -14.1269 -14.0825 -14.0128 -13.9942 -13.8181 -13.7997 -13.7638
   -13.7207 -13.7046  -2.2868   3.6057   5.8703   7.1026

          k =-0.4375 0.4375-0.0625 (  2817 PWs)   bands (ev):

   -14.1464 -14.1415 -14.0553 -13.9973 -13.9674 -13.8418 -13.8124 -13.7974
   -13.6954 -13.6940  -1.7532   2.4672   5.0249   6.6555

          k = 0.4375-0.4375 0.8125 (  2821 PWs)   bands (ev):

   -14.1586 -14.1441 -14.0399 -13.9751 -13.9576 -13.8464 -13.8398 -13.8127
   -13.6916 -13.6797  -1.1503   1.4353   4.7992   6.2061

          k = 0.3125-0.3125 0.6875 (  2822 PWs)   bands (ev):

   -14.1585 -14.1411 -14.0496 -13.9686 -13.9542 -13.8697 -13.8310 -13.7974
   -13.6970 -13.6785  -1.1355   1.4114   4.9937   5.9529

          k = 0.1875-0.1875 0.5625 (  2813 PWs)   bands (ev):

   -14.1463 -14.1334 -14.0756 -13.9883 -13.9526 -13.8763 -13.8077 -13.7673
   -13.7087 -13.6916  -1.7348   2.4567   5.5026   5.9607

          k =-0.1875 0.4375 0.1875 (  2822 PWs)   bands (ev):

   -14.1368 -14.1264 -14.0852 -14.0050 -13.9798 -13.8437 -13.7931 -13.7629
   -13.7180 -13.7019  -2.1014   3.1180   6.1021   6.3212

          k =-0.3125 0.5625 0.0625 (  2814 PWs)   bands (ev):

   -14.1476 -14.1423 -14.0606 -13.9881 -13.9511 -13.8733 -13.8104 -13.7866
   -13.6966 -13.6908  -1.6507   2.3460   5.0657   6.1345

          k = 0.5625-0.3125 0.9375 (  2816 PWs)   bands (ev):

   -14.1626 -14.1508 -14.0280 -13.9649 -13.9289 -13.8916 -13.8406 -13.8174
   -13.6846 -13.6745  -1.0267   1.4461   4.4984   5.7167

          k = 0.4375-0.1875 0.8125 (  2815 PWs)   bands (ev):

   -14.1668 -14.1519 -14.0209 -13.9490 -13.9246 -13.8992 -13.8567 -13.8210
   -13.6836 -13.6689  -0.7038   1.0264   4.4623   5.4869

          k = 0.3125-0.0625 0.6875 (  2817 PWs)   bands (ev):

   -14.1556 -14.1486 -14.0462 -13.9670 -13.9236 -13.9058 -13.8312 -13.7966
   -13.6884 -13.6816  -1.2139   1.7150   4.8002   5.6161

          k =-0.1875 0.6875 0.1875 (  2816 PWs)   bands (ev):

   -14.1550 -14.1407 -14.0614 -13.9665 -13.9255 -13.9075 -13.8292 -13.7793
   -13.6981 -13.6818  -1.2895   1.7971   5.0184   5.6748

          k = 0.6875-0.1875 1.0625 (  2819 PWs)   bands (ev):

   -14.1614 -14.1541 -14.0274 -13.9423 -13.9389 -13.8938 -13.8567 -13.8125
   -13.6815 -13.6742  -0.7120   1.0888   4.6417   5.2190

          k = 0.5625-0.0625 0.9375 (  2811 PWs)   bands (ev):

   -14.1675 -14.1614 -13.9902 -13.9505 -13.9180 -13.8892 -13.8786 -13.8451
   -13.6730 -13.6670  -0.1472   0.4879   4.4542   4.8764

          k = 0.4375 0.0625 0.8125 (  2818 PWs)   bands (ev):

   -14.1667 -14.1568 -14.0104 -13.9424 -13.9227 -13.9034 -13.8639 -13.8291
   -13.6783 -13.6688  -0.5874   0.9499   4.4191   5.2202

          k =-0.1875-1.0625 0.1875 (  2832 PWs)   bands (ev):

   -14.1652 -14.1494 -14.0253 -13.9681 -13.9141 -13.8818 -13.8694 -13.8149
   -13.6854 -13.6701  -0.2478   0.5427   4.5114   5.3778

          k =-0.3125-0.9375 0.0625 (  2823 PWs)   bands (ev):

   -14.1644 -14.1576 -14.0060 -13.9682 -13.9142 -13.8844 -13.8674 -13.8322
   -13.6773 -13.6704  -0.1709   0.4869   4.5804   4.9940

          k =-0.1875-0.8125 0.1875 (  2824 PWs)   bands (ev):

   -14.1615 -14.1464 -14.0432 -13.9434 -13.9410 -13.8925 -13.8547 -13.7971
   -13.6897 -13.6743  -0.7788   1.1449   4.6824   5.4780

          k =-0.3125 0.3125 0.3125 (  2818 PWs)   bands (ev):

   -14.1295 -14.1295 -14.0833 -14.0000 -14.0000 -13.8060 -13.8060 -13.7770
   -13.7102 -13.7102  -2.0316   2.7280   6.7233   6.7233

          k =-0.4375 0.4375 0.1875 (  2818 PWs)   bands (ev):

   -14.1425 -14.1391 -14.0623 -13.9963 -13.9756 -13.8325 -13.8093 -13.7951
   -13.6989 -13.6971  -1.6926   2.1915   5.4475   6.6320

          k = 0.4375-0.4375 1.0625 (  2819 PWs)   bands (ev):

   -14.1633 -14.1468 -14.0308 -13.9709 -13.9433 -13.8611 -13.8497 -13.8166
   -13.6880 -13.6744  -1.1328   1.5503   4.4382   6.1594

          k = 0.3125-0.3125 0.9375 (  2824 PWs)   bands (ev):

   -14.1707 -14.1491 -14.0234 -13.9246 -13.9238 -13.9084 -13.8753 -13.8177
   -13.6858 -13.6646  -0.5620   0.8893   4.2366   5.7104

          k =-0.3125 0.5625 0.3125 (  2822 PWs)   bands (ev):

   -14.1481 -14.1353 -14.0649 -13.9867 -13.9717 -13.8460 -13.8134 -13.7869
   -13.7049 -13.6899  -1.4803   1.7947   5.6282   6.1775

          k = 0.5625-0.3125 1.1875 (  2815 PWs)   bands (ev):

   -14.1609 -14.1468 -14.0360 -13.9682 -13.9446 -13.8743 -13.8359 -13.8118
   -13.6896 -13.6761  -1.0455   1.3620   4.7319   5.8358

          k = 0.4375-0.1875 1.0625 (  2813 PWs)   bands (ev):

   -14.1696 -14.1553 -14.0088 -13.9331 -13.9191 -13.9057 -13.8755 -13.8295
   -13.6795 -13.6654  -0.4542   0.7954   4.3051   5.3053

          k =-0.3125-1.1875 0.3125 (  2826 PWs)   bands (ev):

   -14.1665 -14.1461 -14.0341 -13.9461 -13.9372 -13.8920 -13.8538 -13.8094
   -13.6897 -13.6696  -0.7985   1.0957   4.5053   5.7931

          k =-0.4375 0.4375 0.4375 (  2827 PWs)   bands (ev):

   -14.1346 -14.1346 -14.0765 -13.9905 -13.9905 -13.8131 -13.8131 -13.7856
   -13.7050 -13.7050  -1.4407   1.5350   6.4982   6.4982

          k = 0.4375-0.4375 1.3125 (  2835 PWs)   bands (ev):

   -14.1505 -14.1401 -14.0547 -13.9810 -13.9747 -13.8289 -13.8275 -13.8042
   -13.6979 -13.6888  -1.2025   1.3356   5.3920   6.2904

     highest occupied level (ev):     7.5576

!    total energy              =    -318.48825716 Ry
     Harris-Foulkes estimate   =    -318.48825716 Ry
     estimated scf accuracy    <          2.2E-09 Ry

     The total energy is the sum of the following terms:

     one-electron contribution =    -157.44380340 Ry
     hartree contribution      =      95.80995448 Ry
     xc contribution           =     -86.01097513 Ry
     ewald contribution        =    -170.84343312 Ry

     convergence has been achieved in   7 iterations


     Computing stress (Cartesian axis) and pressure

          total   stress  (Ry/bohr**3)                   (kbar)     P=    1.86
   0.00001264   0.00000000   0.00000000          1.86      0.00      0.00
   0.00000000   0.00001264  -0.00000000          0.00      1.86     -0.00
   0.00000000  -0.00000000   0.00001264          0.00     -0.00      1.86


     Writing output data file sn.a.12.36.8.save

     init_run     :      1.23s CPU      1.26s WALL (       1 calls)
     electrons    :     17.67s CPU     18.20s WALL (       1 calls)
     stress       :      0.95s CPU      0.97s WALL (       1 calls)

     Called by init_run:
     wfcinit      :      0.76s CPU      0.78s WALL (       1 calls)
     potinit      :      0.06s CPU      0.06s WALL (       1 calls)

     Called by electrons:
     c_bands      :     14.17s CPU     14.49s WALL (       7 calls)
     sum_band     :      2.68s CPU      2.83s WALL (       7 calls)
     v_of_rho     :      0.36s CPU      0.37s WALL (       8 calls)
     newd         :      0.51s CPU      0.55s WALL (       8 calls)
     mix_rho      :      0.03s CPU      0.03s WALL (       7 calls)

     Called by c_bands:
     init_us_2    :      0.39s CPU      0.40s WALL (     960 calls)
     cegterg      :     13.48s CPU     13.79s WALL (     420 calls)

     Called by sum_band:
     sum_band:bec :      0.00s CPU      0.00s WALL (     420 calls)
     addusdens    :      0.52s CPU      0.61s WALL (       7 calls)

     Called by *egterg:
     h_psi        :     11.63s CPU     11.94s WALL (    1732 calls)
     s_psi        :      0.26s CPU      0.26s WALL (    1732 calls)
     g_psi        :      0.07s CPU      0.07s WALL (    1252 calls)
     cdiaghg      :      0.75s CPU      0.75s WALL (    1672 calls)

     Called by h_psi:
     h_psi:pot    :     11.51s CPU     11.81s WALL (    1732 calls)
     h_psi:calbec :      0.50s CPU      0.50s WALL (    1732 calls)
     vloc_psi     :     10.67s CPU     10.97s WALL (    1732 calls)
     add_vuspsi   :      0.34s CPU      0.34s WALL (    1732 calls)

     General routines
     calbec       :      0.65s CPU      0.65s WALL (    2212 calls)
     fft          :      0.19s CPU      0.20s WALL (     138 calls)
     ffts         :      0.01s CPU      0.01s WALL (      15 calls)
     fftw         :      9.75s CPU     10.09s WALL (   45604 calls)
     interpolate  :      0.04s CPU      0.04s WALL (      15 calls)
     davcio       :      0.00s CPU      0.01s WALL (      60 calls)

     Parallel routines
     fft_scatter  :      1.80s CPU      1.75s WALL (   45757 calls)

     PWSCF        :    19.99s CPU        20.61s WALL


   This run was terminated on:   1:34:16  23Nov2017            

=------------------------------------------------------------------------------=
   JOB DONE.
=------------------------------------------------------------------------------=
