
     Program PWSCF v.6.1 (svn rev. 13369) starts on 23Nov2017 at  1:34:17 

     This program is part of the open-source Quantum ESPRESSO suite
     for quantum simulation of materials; please cite
         "P. Giannozzi et al., J. Phys.:Condens. Matter 21 395502 (2009);
          URL http://www.quantum-espresso.org", 
     in publications or presentations arising from this work. More details at
     http://www.quantum-espresso.org/quote

     Parallel version (MPI), running on     4 processors
     R & G space division:  proc/nbgrp/npool/nimage =       4
     Waiting for input...
     Reading input from standard input
     Message from routine read_cards :
     DEPRECATED: no units specified in ATOMIC_POSITIONS card
     Message from routine read_cards :
     ATOMIC_POSITIONS: units set to alat

     Current dimensions of program PWSCF are:
     Max number of different atomic species (ntypx) = 10
     Max number of k-points (npk) =  40000
     Max angular momentum in pseudopotentials (lmaxx) =  3

     Subspace diagonalization in iterative solution of the eigenvalue problem:
     a serial algorithm will be used


     Parallelization info
     --------------------
     sticks:   dense  smooth     PW     G-vecs:    dense   smooth      PW
     Min         526     261     78                15974     5604     958
     Max         527     262     79                15977     5605     963
     Sum        2107    1045    313                63903    22419    3839



     bravais-lattice index     =            2
     lattice parameter (alat)  =      12.3600  a.u.
     unit-cell volume          =     472.0581 (a.u.)^3
     number of atoms/cell      =            2
     number of atomic types    =            1
     number of electrons       =        28.00
     number of Kohn-Sham states=           14
     kinetic-energy cutoff     =      50.0000  Ry
     charge density cutoff     =     400.0000  Ry
     convergence threshold     =      1.0E-08
     mixing beta               =       0.7000
     number of iterations used =            8  plain     mixing
     Exchange-correlation      =  SLA  PW   PBX  PBC ( 1  4  3  4 0 0)

     celldm(1)=  12.360000  celldm(2)=   0.000000  celldm(3)=   0.000000
     celldm(4)=   0.000000  celldm(5)=   0.000000  celldm(6)=   0.000000

     crystal axes: (cart. coord. in units of alat)
               a(1) = (  -0.500000   0.000000   0.500000 )  
               a(2) = (   0.000000   0.500000   0.500000 )  
               a(3) = (  -0.500000   0.500000   0.000000 )  

     reciprocal axes: (cart. coord. in units 2 pi/alat)
               b(1) = ( -1.000000 -1.000000  1.000000 )  
               b(2) = (  1.000000  1.000000  1.000000 )  
               b(3) = ( -1.000000  1.000000 -1.000000 )  


     PseudoPot. # 1 for Sn read from file:
     /home/s1333534/quantum_espresso/qe-6.1/pseudo/sn_pbe_v1.4.uspp.F.UPF
     MD5 check sum: 469debedee59599fedebd795477fea03
     Pseudo is Ultrasoft + core correction, Zval = 14.0
     Generated by new atomic code, or converted to UPF format
     Using radial grid of  891 points,  6 beta functions with: 
                l(1) =   0
                l(2) =   0
                l(3) =   1
                l(4) =   1
                l(5) =   2
                l(6) =   2
     Q(r) pseudized with  8 coefficients,  rinner =    1.350   1.350   1.350
                                                       1.350   1.350

     atomic species   valence    mass     pseudopotential
        Sn            14.00   118.71000     Sn( 1.00)

     48 Sym. Ops., with inversion, found (24 have fractional translation)



   Cartesian axes

     site n.     atom                  positions (alat units)
         1           Sn  tau(   1) = (   0.0000000   0.0000000   0.0000000  )
         2           Sn  tau(   2) = (   0.2500000   0.2500000   0.2500000  )

     number of k points=   110

     Number of k-points >= 100: set verbosity='high' to print them.

     Dense  grid:    63903 G-vectors     FFT dimensions: (  60,  60,  60)

     Smooth grid:    22419 G-vectors     FFT dimensions: (  40,  40,  40)

     Estimated max dynamical RAM per process >      28.41MB

     Estimated total allocated dynamical RAM >     113.66MB

     Initial potential from superposition of free atoms

     starting charge   25.99991, renormalised to   28.00000
     Starting wfc are   18 randomized atomic wfcs

     total cpu time spent up to now is        1.9 secs

     per-process dynamical memory:    33.3 Mb

     Self-consistent Calculation

     iteration #  1     ecut=    50.00 Ry     beta=0.70
     Davidson diagonalization with overlap
     ethr =  1.00E-02,  avg # of iterations =  2.8

     total cpu time spent up to now is        6.2 secs

     total energy              =    -317.48992776 Ry
     Harris-Foulkes estimate   =    -319.53787679 Ry
     estimated scf accuracy    <       2.49574019 Ry

     iteration #  2     ecut=    50.00 Ry     beta=0.70
     Davidson diagonalization with overlap
     ethr =  8.91E-03,  avg # of iterations =  3.0

     total cpu time spent up to now is       10.9 secs

     total energy              =    -318.39271100 Ry
     Harris-Foulkes estimate   =    -318.70965033 Ry
     estimated scf accuracy    <       0.47273740 Ry

     iteration #  3     ecut=    50.00 Ry     beta=0.70
     Davidson diagonalization with overlap
     ethr =  1.69E-03,  avg # of iterations =  2.0

     total cpu time spent up to now is       15.0 secs

     total energy              =    -318.48732087 Ry
     Harris-Foulkes estimate   =    -318.48889512 Ry
     estimated scf accuracy    <       0.00288451 Ry

     iteration #  4     ecut=    50.00 Ry     beta=0.70
     Davidson diagonalization with overlap
     ethr =  1.03E-05,  avg # of iterations =  3.0

     total cpu time spent up to now is       19.3 secs

     total energy              =    -318.48821549 Ry
     Harris-Foulkes estimate   =    -318.48833420 Ry
     estimated scf accuracy    <       0.00017633 Ry

     iteration #  5     ecut=    50.00 Ry     beta=0.70
     Davidson diagonalization with overlap
     ethr =  6.30E-07,  avg # of iterations =  3.0

     total cpu time spent up to now is       23.7 secs

     total energy              =    -318.48826903 Ry
     Harris-Foulkes estimate   =    -318.48826970 Ry
     estimated scf accuracy    <       0.00000142 Ry

     iteration #  6     ecut=    50.00 Ry     beta=0.70
     Davidson diagonalization with overlap
     ethr =  5.08E-09,  avg # of iterations =  3.9

     total cpu time spent up to now is       28.6 secs

     total energy              =    -318.48826980 Ry
     Harris-Foulkes estimate   =    -318.48826986 Ry
     estimated scf accuracy    <       0.00000008 Ry

     iteration #  7     ecut=    50.00 Ry     beta=0.70
     Davidson diagonalization with overlap
     ethr =  2.94E-10,  avg # of iterations =  3.1

     total cpu time spent up to now is       33.1 secs

     End of self-consistent calculation

     Number of k-points >= 100: set verbosity='high' to print the bands.

     highest occupied level (ev):     7.5852

!    total energy              =    -318.48826983 Ry
     Harris-Foulkes estimate   =    -318.48826984 Ry
     estimated scf accuracy    <          2.2E-09 Ry

     The total energy is the sum of the following terms:

     one-electron contribution =    -157.44364564 Ry
     hartree contribution      =      95.80976583 Ry
     xc contribution           =     -86.01095690 Ry
     ewald contribution        =    -170.84343312 Ry

     convergence has been achieved in   7 iterations


     Computing stress (Cartesian axis) and pressure

          total   stress  (Ry/bohr**3)                   (kbar)     P=    1.90
   0.00001289   0.00000000   0.00000000          1.90      0.00      0.00
   0.00000000   0.00001289  -0.00000000          0.00      1.90     -0.00
   0.00000000  -0.00000000   0.00001289          0.00     -0.00      1.90


     Writing output data file sn.a.12.36.10.save

     init_run     :      1.83s CPU      1.88s WALL (       1 calls)
     electrons    :     30.17s CPU     31.15s WALL (       1 calls)
     stress       :      1.28s CPU      1.31s WALL (       1 calls)

     Called by init_run:
     wfcinit      :      1.36s CPU      1.39s WALL (       1 calls)
     potinit      :      0.06s CPU      0.06s WALL (       1 calls)

     Called by electrons:
     c_bands      :     24.98s CPU     25.69s WALL (       7 calls)
     sum_band     :      4.42s CPU      4.60s WALL (       7 calls)
     v_of_rho     :      0.35s CPU      0.37s WALL (       8 calls)
     newd         :      0.47s CPU      0.55s WALL (       8 calls)
     mix_rho      :      0.03s CPU      0.03s WALL (       7 calls)

     Called by c_bands:
     init_us_2    :      0.70s CPU      0.72s WALL (    1760 calls)
     cegterg      :     23.74s CPU     24.44s WALL (     770 calls)

     Called by sum_band:
     sum_band:bec :      0.00s CPU      0.01s WALL (     770 calls)
     addusdens    :      0.51s CPU      0.61s WALL (       7 calls)

     Called by *egterg:
     h_psi        :     20.58s CPU     21.24s WALL (    3166 calls)
     s_psi        :      0.36s CPU      0.37s WALL (    3166 calls)
     g_psi        :      0.14s CPU      0.14s WALL (    2286 calls)
     cdiaghg      :      1.35s CPU      1.35s WALL (    3056 calls)

     Called by h_psi:
     h_psi:pot    :     20.41s CPU     21.07s WALL (    3166 calls)
     h_psi:calbec :      0.86s CPU      0.87s WALL (    3166 calls)
     vloc_psi     :     19.09s CPU     19.71s WALL (    3166 calls)
     add_vuspsi   :      0.46s CPU      0.47s WALL (    3166 calls)

     General routines
     calbec       :      1.11s CPU      1.11s WALL (    4046 calls)
     fft          :      0.18s CPU      0.19s WALL (     138 calls)
     ffts         :      0.01s CPU      0.01s WALL (      15 calls)
     fftw         :     17.79s CPU     18.42s WALL (   83668 calls)
     interpolate  :      0.03s CPU      0.03s WALL (      15 calls)
     davcio       :      0.00s CPU      0.01s WALL (     110 calls)

     Parallel routines
     fft_scatter  :      3.15s CPU      3.06s WALL (   83821 calls)

     PWSCF        :    33.47s CPU        34.56s WALL


   This run was terminated on:   1:34:52  23Nov2017            

=------------------------------------------------------------------------------=
   JOB DONE.
=------------------------------------------------------------------------------=
