
     Program PWSCF v.6.1 (svn rev. 13369) starts on 11Nov2017 at 16:12:16 

     This program is part of the open-source Quantum ESPRESSO suite
     for quantum simulation of materials; please cite
         "P. Giannozzi et al., J. Phys.:Condens. Matter 21 395502 (2009);
          URL http://www.quantum-espresso.org", 
     in publications or presentations arising from this work. More details at
     http://www.quantum-espresso.org/quote

     Parallel version (MPI), running on     4 processors
     R & G space division:  proc/nbgrp/npool/nimage =       4
     Waiting for input...
     Reading input from standard input
     Message from routine read_cards :
     DEPRECATED: no units specified in ATOMIC_POSITIONS card
     Message from routine read_cards :
     ATOMIC_POSITIONS: units set to alat

     Current dimensions of program PWSCF are:
     Max number of different atomic species (ntypx) = 10
     Max number of k-points (npk) =  40000
     Max angular momentum in pseudopotentials (lmaxx) =  3

     Subspace diagonalization in iterative solution of the eigenvalue problem:
     a serial algorithm will be used


     Parallelization info
     --------------------
     sticks:   dense  smooth     PW     G-vecs:    dense   smooth      PW
     Min         543     267     78                16729     5875     958
     Max         544     268     79                16732     5880     963
     Sum        2173    1069    313                66923    23505    3839



     bravais-lattice index     =            2
     lattice parameter (alat)  =      12.5500  a.u.
     unit-cell volume          =     494.1641 (a.u.)^3
     number of atoms/cell      =            2
     number of atomic types    =            1
     number of electrons       =        28.00
     number of Kohn-Sham states=           14
     kinetic-energy cutoff     =      50.0000  Ry
     charge density cutoff     =     400.0000  Ry
     convergence threshold     =      1.0E-08
     mixing beta               =       0.7000
     number of iterations used =            8  plain     mixing
     Exchange-correlation      =  SLA  PW   PBX  PBC ( 1  4  3  4 0 0)

     celldm(1)=  12.550000  celldm(2)=   0.000000  celldm(3)=   0.000000
     celldm(4)=   0.000000  celldm(5)=   0.000000  celldm(6)=   0.000000

     crystal axes: (cart. coord. in units of alat)
               a(1) = (  -0.500000   0.000000   0.500000 )  
               a(2) = (   0.000000   0.500000   0.500000 )  
               a(3) = (  -0.500000   0.500000   0.000000 )  

     reciprocal axes: (cart. coord. in units 2 pi/alat)
               b(1) = ( -1.000000 -1.000000  1.000000 )  
               b(2) = (  1.000000  1.000000  1.000000 )  
               b(3) = ( -1.000000  1.000000 -1.000000 )  


     PseudoPot. # 1 for Sn read from file:
     /home/s1333534/quantum_espresso/qe-6.1/pseudo/sn_pbe_v1.4.uspp.F.UPF
     MD5 check sum: 469debedee59599fedebd795477fea03
     Pseudo is Ultrasoft + core correction, Zval = 14.0
     Generated by new atomic code, or converted to UPF format
     Using radial grid of  891 points,  6 beta functions with: 
                l(1) =   0
                l(2) =   0
                l(3) =   1
                l(4) =   1
                l(5) =   2
                l(6) =   2
     Q(r) pseudized with  8 coefficients,  rinner =    1.350   1.350   1.350
                                                       1.350   1.350

     atomic species   valence    mass     pseudopotential
        Sn            14.00   118.71000     Sn( 1.00)

     48 Sym. Ops., with inversion, found (24 have fractional translation)



   Cartesian axes

     site n.     atom                  positions (alat units)
         1           Sn  tau(   1) = (   0.0000000   0.0000000   0.0000000  )
         2           Sn  tau(   2) = (   0.2500000   0.2500000   0.2500000  )

     number of k points=    60
                       cart. coord. in units 2pi/alat
        k(    1) = (  -0.0625000   0.0625000   0.0625000), wk =   0.0078125
        k(    2) = (  -0.1875000   0.1875000  -0.0625000), wk =   0.0234375
        k(    3) = (  -0.3125000   0.3125000  -0.1875000), wk =   0.0234375
        k(    4) = (  -0.4375000   0.4375000  -0.3125000), wk =   0.0234375
        k(    5) = (   0.4375000  -0.4375000   0.5625000), wk =   0.0234375
        k(    6) = (   0.3125000  -0.3125000   0.4375000), wk =   0.0234375
        k(    7) = (   0.1875000  -0.1875000   0.3125000), wk =   0.0234375
        k(    8) = (   0.0625000  -0.0625000   0.1875000), wk =   0.0234375
        k(    9) = (  -0.0625000   0.3125000   0.0625000), wk =   0.0234375
        k(   10) = (  -0.1875000   0.4375000  -0.0625000), wk =   0.0468750
        k(   11) = (  -0.3125000   0.5625000  -0.1875000), wk =   0.0468750
        k(   12) = (   0.5625000  -0.3125000   0.6875000), wk =   0.0468750
        k(   13) = (   0.4375000  -0.1875000   0.5625000), wk =   0.0468750
        k(   14) = (   0.3125000  -0.0625000   0.4375000), wk =   0.0468750
        k(   15) = (   0.1875000   0.0625000   0.3125000), wk =   0.0468750
        k(   16) = (  -0.0625000   0.5625000   0.0625000), wk =   0.0234375
        k(   17) = (  -0.1875000   0.6875000  -0.0625000), wk =   0.0468750
        k(   18) = (   0.6875000  -0.1875000   0.8125000), wk =   0.0468750
        k(   19) = (   0.5625000  -0.0625000   0.6875000), wk =   0.0468750
        k(   20) = (   0.4375000   0.0625000   0.5625000), wk =   0.0468750
        k(   21) = (   0.3125000   0.1875000   0.4375000), wk =   0.0468750
        k(   22) = (  -0.0625000   0.8125000   0.0625000), wk =   0.0234375
        k(   23) = (   0.8125000  -0.0625000   0.9375000), wk =   0.0468750
        k(   24) = (   0.6875000   0.0625000   0.8125000), wk =   0.0468750
        k(   25) = (   0.5625000   0.1875000   0.6875000), wk =   0.0468750
        k(   26) = (   0.4375000   0.3125000   0.5625000), wk =   0.0468750
        k(   27) = (  -0.0625000  -0.9375000   0.0625000), wk =   0.0234375
        k(   28) = (  -0.1875000  -0.8125000  -0.0625000), wk =   0.0468750
        k(   29) = (  -0.3125000  -0.6875000  -0.1875000), wk =   0.0468750
        k(   30) = (  -0.0625000  -0.6875000   0.0625000), wk =   0.0234375
        k(   31) = (  -0.1875000  -0.5625000  -0.0625000), wk =   0.0468750
        k(   32) = (  -0.0625000  -0.4375000   0.0625000), wk =   0.0234375
        k(   33) = (  -0.1875000   0.1875000   0.1875000), wk =   0.0078125
        k(   34) = (  -0.3125000   0.3125000   0.0625000), wk =   0.0234375
        k(   35) = (  -0.4375000   0.4375000  -0.0625000), wk =   0.0234375
        k(   36) = (   0.4375000  -0.4375000   0.8125000), wk =   0.0234375
        k(   37) = (   0.3125000  -0.3125000   0.6875000), wk =   0.0234375
        k(   38) = (   0.1875000  -0.1875000   0.5625000), wk =   0.0234375
        k(   39) = (  -0.1875000   0.4375000   0.1875000), wk =   0.0234375
        k(   40) = (  -0.3125000   0.5625000   0.0625000), wk =   0.0468750
        k(   41) = (   0.5625000  -0.3125000   0.9375000), wk =   0.0468750
        k(   42) = (   0.4375000  -0.1875000   0.8125000), wk =   0.0468750
        k(   43) = (   0.3125000  -0.0625000   0.6875000), wk =   0.0468750
        k(   44) = (  -0.1875000   0.6875000   0.1875000), wk =   0.0234375
        k(   45) = (   0.6875000  -0.1875000   1.0625000), wk =   0.0468750
        k(   46) = (   0.5625000  -0.0625000   0.9375000), wk =   0.0468750
        k(   47) = (   0.4375000   0.0625000   0.8125000), wk =   0.0468750
        k(   48) = (  -0.1875000  -1.0625000   0.1875000), wk =   0.0234375
        k(   49) = (  -0.3125000  -0.9375000   0.0625000), wk =   0.0468750
        k(   50) = (  -0.1875000  -0.8125000   0.1875000), wk =   0.0234375
        k(   51) = (  -0.3125000   0.3125000   0.3125000), wk =   0.0078125
        k(   52) = (  -0.4375000   0.4375000   0.1875000), wk =   0.0234375
        k(   53) = (   0.4375000  -0.4375000   1.0625000), wk =   0.0234375
        k(   54) = (   0.3125000  -0.3125000   0.9375000), wk =   0.0234375
        k(   55) = (  -0.3125000   0.5625000   0.3125000), wk =   0.0234375
        k(   56) = (   0.5625000  -0.3125000   1.1875000), wk =   0.0468750
        k(   57) = (   0.4375000  -0.1875000   1.0625000), wk =   0.0468750
        k(   58) = (  -0.3125000  -1.1875000   0.3125000), wk =   0.0234375
        k(   59) = (  -0.4375000   0.4375000   0.4375000), wk =   0.0078125
        k(   60) = (   0.4375000  -0.4375000   1.3125000), wk =   0.0234375

     Dense  grid:    66923 G-vectors     FFT dimensions: (  60,  60,  60)

     Smooth grid:    23505 G-vectors     FFT dimensions: (  40,  40,  40)

     Estimated max dynamical RAM per process >      21.70MB

     Estimated total allocated dynamical RAM >      86.79MB

     Initial potential from superposition of free atoms

     starting charge   25.99991, renormalised to   28.00000
     Starting wfc are   18 randomized atomic wfcs

     total cpu time spent up to now is        1.3 secs

     per-process dynamical memory:    25.7 Mb

     Self-consistent Calculation

     iteration #  1     ecut=    50.00 Ry     beta=0.70
     Davidson diagonalization with overlap
     ethr =  1.00E-02,  avg # of iterations =  2.6

     total cpu time spent up to now is        3.8 secs

     total energy              =    -317.48565749 Ry
     Harris-Foulkes estimate   =    -319.54794891 Ry
     estimated scf accuracy    <       2.51270162 Ry

     iteration #  2     ecut=    50.00 Ry     beta=0.70
     Davidson diagonalization with overlap
     ethr =  8.97E-03,  avg # of iterations =  3.0

     total cpu time spent up to now is        6.5 secs

     total energy              =    -318.39377639 Ry
     Harris-Foulkes estimate   =    -318.71199005 Ry
     estimated scf accuracy    <       0.47383473 Ry

     iteration #  3     ecut=    50.00 Ry     beta=0.70
     Davidson diagonalization with overlap
     ethr =  1.69E-03,  avg # of iterations =  2.0

     total cpu time spent up to now is        8.8 secs

     total energy              =    -318.48884208 Ry
     Harris-Foulkes estimate   =    -318.49041126 Ry
     estimated scf accuracy    <       0.00287826 Ry

     iteration #  4     ecut=    50.00 Ry     beta=0.70
     Davidson diagonalization with overlap
     ethr =  1.03E-05,  avg # of iterations =  3.0

     total cpu time spent up to now is       11.4 secs

     total energy              =    -318.48972628 Ry
     Harris-Foulkes estimate   =    -318.48984449 Ry
     estimated scf accuracy    <       0.00017509 Ry

     iteration #  5     ecut=    50.00 Ry     beta=0.70
     Davidson diagonalization with overlap
     ethr =  6.25E-07,  avg # of iterations =  3.0

     total cpu time spent up to now is       13.9 secs

     total energy              =    -318.48978001 Ry
     Harris-Foulkes estimate   =    -318.48978080 Ry
     estimated scf accuracy    <       0.00000159 Ry

     iteration #  6     ecut=    50.00 Ry     beta=0.70
     Davidson diagonalization with overlap
     ethr =  5.67E-09,  avg # of iterations =  3.9

     total cpu time spent up to now is       16.7 secs

     total energy              =    -318.48978080 Ry
     Harris-Foulkes estimate   =    -318.48978085 Ry
     estimated scf accuracy    <       0.00000007 Ry

     iteration #  7     ecut=    50.00 Ry     beta=0.70
     Davidson diagonalization with overlap
     ethr =  2.63E-10,  avg # of iterations =  3.2

     total cpu time spent up to now is       19.3 secs

     End of self-consistent calculation

          k =-0.0625 0.0625 0.0625 (  2924 PWs)   bands (ev):

   -14.5788 -14.5788 -14.5754 -14.5235 -14.5235 -14.2806 -14.2806 -14.2714
   -14.2591 -14.2591  -3.1281   5.4638   7.0092   7.0092

          k =-0.1875 0.1875-0.0625 (  2926 PWs)   bands (ev):

   -14.5910 -14.5859 -14.5721 -14.5125 -14.5054 -14.3039 -14.2944 -14.2689
   -14.2537 -14.2409  -2.9421   4.2834   6.3256   6.8712

          k =-0.3125 0.3125-0.1875 (  2937 PWs)   bands (ev):

   -14.6026 -14.5995 -14.5613 -14.4946 -14.4849 -14.3224 -14.3105 -14.2848
   -14.2365 -14.2288  -2.5000   2.7066   5.8311   6.4467

          k =-0.4375 0.4375-0.3125 (  2951 PWs)   bands (ev):

   -14.6082 -14.6080 -14.5508 -14.4816 -14.4742 -14.3299 -14.3205 -14.3004
   -14.2259 -14.2242  -1.9163   1.3988   5.5849   6.0863

          k = 0.4375-0.4375 0.5625 (  2940 PWs)   bands (ev):

   -14.6113 -14.6071 -14.5475 -14.4753 -14.4746 -14.3288 -14.3264 -14.3032
   -14.2254 -14.2214  -1.6575   0.9527   5.5849   5.9120

          k = 0.3125-0.3125 0.4375 (  2946 PWs)   bands (ev):

   -14.6088 -14.6034 -14.5549 -14.4846 -14.4759 -14.3320 -14.3165 -14.2933
   -14.2313 -14.2234  -2.1093   1.7761   5.8153   5.9617

          k = 0.1875-0.1875 0.3125 (  2932 PWs)   bands (ev):

   -14.5997 -14.5944 -14.5665 -14.5007 -14.4895 -14.3224 -14.3011 -14.2781
   -14.2417 -14.2326  -2.6717   3.2250   6.2328   6.2335

          k = 0.0625-0.0625 0.1875 (  2937 PWs)   bands (ev):

   -14.5851 -14.5826 -14.5762 -14.5193 -14.5109 -14.3021 -14.2810 -14.2679
   -14.2587 -14.2476  -3.0344   4.8006   6.6619   6.6955

          k =-0.0625 0.3125 0.0625 (  2931 PWs)   bands (ev):

   -14.5918 -14.5883 -14.5778 -14.5103 -14.4899 -14.3290 -14.2865 -14.2608
   -14.2533 -14.2408  -2.8478   3.9939   6.1898   6.2048

          k =-0.1875 0.4375-0.0625 (  2938 PWs)   bands (ev):

   -14.6049 -14.5998 -14.5651 -14.4940 -14.4661 -14.3545 -14.3035 -14.2715
   -14.2385 -14.2276  -2.4858   2.8818   5.4148   5.9663

          k =-0.3125 0.5625-0.1875 (  2955 PWs)   bands (ev):

   -14.6194 -14.6087 -14.5430 -14.4763 -14.4524 -14.3655 -14.3227 -14.2976
   -14.2252 -14.2130  -1.9219   1.6350   4.9063   5.6648

          k = 0.5625-0.3125 0.6875 (  2949 PWs)   bands (ev):

   -14.6258 -14.6131 -14.5272 -14.4627 -14.4555 -14.3561 -14.3400 -14.3159
   -14.2186 -14.2058  -1.4627   0.8701   4.6443   5.5976

          k = 0.4375-0.1875 0.5625 (  2958 PWs)   bands (ev):

   -14.6223 -14.6133 -14.5308 -14.4741 -14.4542 -14.3552 -14.3272 -14.3172
   -14.2182 -14.2107  -1.7326   1.2987   4.6475   5.8056

          k = 0.3125-0.0625 0.4375 (  2944 PWs)   bands (ev):

   -14.6098 -14.6072 -14.5503 -14.4902 -14.4659 -14.3476 -14.3126 -14.2905
   -14.2293 -14.2216  -2.3195   2.4479   5.0042   6.1952

          k = 0.1875 0.0625 0.3125 (  2926 PWs)   bands (ev):

   -14.5979 -14.5922 -14.5691 -14.5051 -14.4890 -14.3259 -14.2968 -14.2695
   -14.2478 -14.2336  -2.7586   3.6021   5.8624   6.4895

          k =-0.0625 0.5625 0.0625 (  2934 PWs)   bands (ev):

   -14.6068 -14.6039 -14.5694 -14.4788 -14.4353 -14.3919 -14.3159 -14.2604
   -14.2320 -14.2281  -2.2037   2.3432   5.2967   5.3854

          k =-0.1875 0.6875-0.0625 (  2958 PWs)   bands (ev):

   -14.6195 -14.6140 -14.5452 -14.4580 -14.4179 -14.4109 -14.3375 -14.2877
   -14.2189 -14.2129  -1.6878   1.4313   4.7299   5.1228

          k = 0.6875-0.1875 0.8125 (  2956 PWs)   bands (ev):

   -14.6337 -14.6189 -14.5146 -14.4380 -14.4210 -14.4051 -14.3609 -14.3192
   -14.2119 -14.1967  -1.1120   0.6281   4.1508   5.0918

          k = 0.5625-0.0625 0.6875 (  2961 PWs)   bands (ev):

   -14.6364 -14.6201 -14.5061 -14.4431 -14.4249 -14.3883 -14.3686 -14.3289
   -14.2098 -14.1946  -1.1763   0.7099   3.9369   5.3459

          k = 0.4375 0.0625 0.5625 (  2952 PWs)   bands (ev):

   -14.6250 -14.6160 -14.5238 -14.4734 -14.4442 -14.3662 -14.3284 -14.3227
   -14.2142 -14.2083  -1.7612   1.4684   4.3186   5.7819

          k = 0.3125 0.1875 0.4375 (  2946 PWs)   bands (ev):

   -14.6102 -14.6040 -14.5532 -14.4881 -14.4709 -14.3410 -14.3134 -14.2908
   -14.2314 -14.2219  -2.2476   2.1654   5.3730   6.1013

          k =-0.0625 0.8125 0.0625 (  2954 PWs)   bands (ev):

   -14.6193 -14.6169 -14.5385 -14.4576 -14.4345 -14.3741 -14.3598 -14.2927
   -14.2145 -14.2119  -1.2219   0.7746   4.7628   4.8889

          k = 0.8125-0.0625 0.9375 (  2949 PWs)   bands (ev):

   -14.6274 -14.6221 -14.5064 -14.4759 -14.4103 -14.3848 -14.3555 -14.3256
   -14.2077 -14.2022  -0.6002   0.0537   4.4188   4.7396

          k = 0.6875 0.0625 0.8125 (  2950 PWs)   bands (ev):

   -14.6369 -14.6216 -14.5020 -14.4354 -14.4160 -14.3933 -14.3821 -14.3302
   -14.2080 -14.1929  -0.7320   0.2184   3.9739   4.9790

          k = 0.5625 0.1875 0.6875 (  2958 PWs)   bands (ev):

   -14.6327 -14.6174 -14.5144 -14.4511 -14.4399 -14.3742 -14.3557 -14.3239
   -14.2132 -14.1985  -1.2783   0.7513   4.1989   5.4300

          k = 0.4375 0.3125 0.5625 (  2948 PWs)   bands (ev):

   -14.6168 -14.6092 -14.5405 -14.4749 -14.4666 -14.3401 -14.3265 -14.3084
   -14.2233 -14.2156  -1.6897   1.0881   5.1523   5.8463

          k =-0.0625-0.9375 0.0625 (  2956 PWs)   bands (ev):

   -14.6221 -14.6201 -14.5156 -14.4879 -14.4097 -14.3846 -14.3445 -14.3165
   -14.2101 -14.2077  -0.6188   0.0516   4.6537   4.7869

          k =-0.1875-0.8125-0.0625 (  2951 PWs)   bands (ev):

   -14.6247 -14.6192 -14.5276 -14.4479 -14.4350 -14.3824 -14.3603 -14.3045
   -14.2117 -14.2059  -1.1745   0.7256   4.5237   4.8682

          k =-0.3125-0.6875-0.1875 (  2961 PWs)   bands (ev):

   -14.6277 -14.6140 -14.5300 -14.4590 -14.4321 -14.3908 -14.3397 -14.3070
   -14.2182 -14.2039  -1.5352   1.1208   4.4786   5.3199

          k =-0.0625-0.6875 0.0625 (  2941 PWs)   bands (ev):

   -14.6137 -14.6113 -14.5567 -14.4576 -14.4252 -14.4050 -14.3365 -14.2735
   -14.2219 -14.2190  -1.7526   1.5424   4.9788   5.0903

          k =-0.1875-0.5625-0.0625 (  2946 PWs)   bands (ev):

   -14.6125 -14.6073 -14.5576 -14.4780 -14.4398 -14.3854 -14.3179 -14.2764
   -14.2281 -14.2207  -2.1272   2.1539   5.0305   5.4953

          k =-0.0625-0.4375 0.0625 (  2928 PWs)   bands (ev):

   -14.5991 -14.5959 -14.5762 -14.4965 -14.4641 -14.3596 -14.2987 -14.2559
   -14.2432 -14.2359  -2.5700   3.1651   5.7070   5.7637

          k =-0.1875 0.1875 0.1875 (  2929 PWs)   bands (ev):

   -14.5919 -14.5919 -14.5693 -14.5046 -14.5046 -14.3017 -14.3017 -14.2785
   -14.2419 -14.2419  -2.8516   3.8299   6.6101   6.6101

          k =-0.3125 0.3125 0.0625 (  2933 PWs)   bands (ev):

   -14.6035 -14.5994 -14.5594 -14.4983 -14.4821 -14.3272 -14.3100 -14.2793
   -14.2397 -14.2271  -2.5814   3.0475   5.4217   6.5787

          k =-0.4375 0.4375-0.0625 (  2939 PWs)   bands (ev):

   -14.6167 -14.6125 -14.5358 -14.4845 -14.4585 -14.3482 -14.3210 -14.3095
   -14.2184 -14.2176  -2.0755   1.9625   4.6206   6.1581

          k = 0.4375-0.4375 0.8125 (  2963 PWs)   bands (ev):

   -14.6277 -14.6152 -14.5217 -14.4652 -14.4503 -14.3533 -14.3464 -14.3223
   -14.2157 -14.2047  -1.5082   0.9944   4.3942   5.7348

          k = 0.3125-0.3125 0.6875 (  2955 PWs)   bands (ev):

   -14.6275 -14.6121 -14.5300 -14.4599 -14.4468 -14.3726 -14.3397 -14.3088
   -14.2201 -14.2040  -1.4938   0.9716   4.5741   5.4967

          k = 0.1875-0.1875 0.5625 (  2943 PWs)   bands (ev):

   -14.6166 -14.6052 -14.5531 -14.4772 -14.4454 -14.3774 -14.3197 -14.2825
   -14.2298 -14.2159  -2.0571   1.9499   5.0618   5.5058

          k =-0.1875 0.4375 0.1875 (  2944 PWs)   bands (ev):

   -14.6082 -14.5993 -14.5618 -14.4917 -14.4693 -14.3487 -14.3068 -14.2780
   -14.2377 -14.2243  -2.4054   2.5891   5.6216   5.8471

          k =-0.3125 0.5625 0.0625 (  2955 PWs)   bands (ev):

   -14.6179 -14.6131 -14.5404 -14.4771 -14.4446 -14.3750 -14.3215 -14.2994
   -14.2199 -14.2150  -1.9775   1.8395   4.6596   5.6676

          k = 0.5625-0.3125 0.9375 (  2961 PWs)   bands (ev):

   -14.6315 -14.6208 -14.5118 -14.4563 -14.4251 -14.3918 -14.3478 -14.3267
   -14.2096 -14.2002  -1.3874   0.9797   4.1247   5.2766

          k = 0.4375-0.1875 0.8125 (  2959 PWs)   bands (ev):

   -14.6351 -14.6215 -14.5051 -14.4423 -14.4214 -14.3987 -14.3622 -14.3300
   -14.2087 -14.1955  -1.0839   0.5845   4.0869   5.0612

          k = 0.3125-0.0625 0.6875 (  2964 PWs)   bands (ev):

   -14.6253 -14.6188 -14.5277 -14.4585 -14.4205 -14.4037 -14.3397 -14.3089
   -14.2127 -14.2069  -1.5628   1.2319   4.4095   5.1819

          k =-0.1875 0.6875 0.1875 (  2956 PWs)   bands (ev):

   -14.6246 -14.6117 -14.5404 -14.4581 -14.4216 -14.4052 -14.3383 -14.2936
   -14.2212 -14.2073  -1.6342   1.3130   4.6119   5.2348

          k = 0.6875-0.1875 1.0625 (  2949 PWs)   bands (ev):

   -14.6301 -14.6236 -14.5105 -14.4366 -14.4326 -14.3940 -14.3621 -14.3225
   -14.2066 -14.2002  -1.0863   0.6307   4.2619   4.8087

          k = 0.5625-0.0625 0.9375 (  2967 PWs)   bands (ev):

   -14.6357 -14.6301 -14.4783 -14.4437 -14.4156 -14.3905 -14.3809 -14.3516
   -14.1997 -14.1942  -0.5522   0.0563   4.0882   4.4871

          k = 0.4375 0.0625 0.8125 (  2959 PWs)   bands (ev):

   -14.6348 -14.6261 -14.4961 -14.4365 -14.4191 -14.4025 -14.3683 -14.3372
   -14.2040 -14.1954  -0.9707   0.5006   4.0523   4.8109

          k =-0.1875-1.0625 0.1875 (  2948 PWs)   bands (ev):

   -14.6331 -14.6200 -14.5075 -14.4581 -14.4119 -14.3837 -14.3726 -14.3246
   -14.2099 -14.1965  -0.6462   0.1121   4.1415   4.9530

          k =-0.3125-0.9375 0.0625 (  2951 PWs)   bands (ev):

   -14.6326 -14.6265 -14.4912 -14.4583 -14.4124 -14.3864 -14.3708 -14.3400
   -14.2030 -14.1970  -0.5726   0.0557   4.2066   4.5957

          k =-0.1875-0.8125 0.1875 (  2950 PWs)   bands (ev):

   -14.6301 -14.6170 -14.5236 -14.4363 -14.4356 -14.3930 -14.3604 -14.3089
   -14.2140 -14.2002  -1.1494   0.6865   4.3002   5.0480

          k =-0.3125 0.3125 0.3125 (  2932 PWs)   bands (ev):

   -14.6019 -14.6019 -14.5607 -14.4869 -14.4869 -14.3169 -14.3169 -14.2897
   -14.2311 -14.2311  -2.3403   2.2426   6.2230   6.2230

          k =-0.4375 0.4375 0.1875 (  2943 PWs)   bands (ev):

   -14.6131 -14.6105 -14.5420 -14.4836 -14.4656 -14.3402 -14.3195 -14.3067
   -14.2216 -14.2201  -2.0193   1.7204   5.0049   6.1356

          k = 0.4375-0.4375 1.0625 (  2951 PWs)   bands (ev):

   -14.6319 -14.6175 -14.5135 -14.4613 -14.4378 -14.3662 -14.3547 -14.3258
   -14.2123 -14.1998  -1.4889   1.0847   4.0671   5.6910

          k = 0.3125-0.3125 0.9375 (  2954 PWs)   bands (ev):

   -14.6383 -14.6196 -14.5063 -14.4215 -14.4201 -14.4064 -14.3781 -14.3269
   -14.2101 -14.1920  -0.9492   0.4491   3.8809   5.2673

          k =-0.3125 0.5625 0.3125 (  2950 PWs)   bands (ev):

   -14.6182 -14.6066 -14.5441 -14.4757 -14.4622 -14.3515 -14.3243 -14.2996
   -14.2269 -14.2137  -1.8196   1.3482   5.1649   5.7089

          k = 0.5625-0.3125 1.1875 (  2960 PWs)   bands (ev):

   -14.6299 -14.6172 -14.5185 -14.4591 -14.4389 -14.3767 -14.3442 -14.3216
   -14.2140 -14.2016  -1.4080   0.9160   4.3331   5.3888

          k = 0.4375-0.1875 1.0625 (  2964 PWs)   bands (ev):

   -14.6375 -14.6248 -14.4942 -14.4287 -14.4163 -14.4047 -14.3785 -14.3378
   -14.2052 -14.1927  -0.8459   0.3552   3.9461   4.8896

          k =-0.3125-1.1875 0.3125 (  2952 PWs)   bands (ev):

   -14.6347 -14.6166 -14.5159 -14.4403 -14.4318 -14.3920 -14.3592 -14.3194
   -14.2139 -14.1961  -1.1745   0.6567   4.1253   5.3456

          k =-0.4375 0.4375 0.4375 (  2953 PWs)   bands (ev):

   -14.6063 -14.6063 -14.5541 -14.4787 -14.4787 -14.3240 -14.3240 -14.2975
   -14.2269 -14.2269  -1.7859   1.1211   6.0089   6.0089

          k = 0.4375-0.4375 1.3125 (  2946 PWs)   bands (ev):

   -14.6201 -14.6110 -14.5344 -14.4698 -14.4648 -14.3376 -14.3362 -14.3138
   -14.2208 -14.2124  -1.5609   0.9197   4.9424   5.8138

     highest occupied level (ev):     7.0092

!    total energy              =    -318.48978083 Ry
     Harris-Foulkes estimate   =    -318.48978084 Ry
     estimated scf accuracy    <          2.6E-09 Ry

     The total energy is the sum of the following terms:

     one-electron contribution =    -161.66606629 Ry
     hartree contribution      =      97.40064922 Ry
     xc contribution           =     -85.96740494 Ry
     ewald contribution        =    -168.25695883 Ry

     convergence has been achieved in   7 iterations

     Writing output data file sn.alpha.12.55.save

     init_run     :      1.21s CPU      1.26s WALL (       1 calls)
     electrons    :     17.40s CPU     18.02s WALL (       1 calls)

     Called by init_run:
     wfcinit      :      0.73s CPU      0.77s WALL (       1 calls)
     potinit      :      0.06s CPU      0.06s WALL (       1 calls)

     Called by electrons:
     c_bands      :     13.82s CPU     14.18s WALL (       7 calls)
     sum_band     :      2.74s CPU      2.89s WALL (       7 calls)
     v_of_rho     :      0.36s CPU      0.38s WALL (       8 calls)
     newd         :      0.53s CPU      0.59s WALL (       8 calls)
     mix_rho      :      0.03s CPU      0.03s WALL (       7 calls)

     Called by c_bands:
     init_us_2    :      0.37s CPU      0.38s WALL (     900 calls)
     cegterg      :     13.11s CPU     13.45s WALL (     420 calls)

     Called by sum_band:
     sum_band:bec :      0.00s CPU      0.00s WALL (     420 calls)
     addusdens    :      0.56s CPU      0.65s WALL (       7 calls)

     Called by *egterg:
     h_psi        :     11.30s CPU     11.65s WALL (    1722 calls)
     s_psi        :      0.21s CPU      0.21s WALL (    1722 calls)
     g_psi        :      0.08s CPU      0.08s WALL (    1242 calls)
     cdiaghg      :      0.72s CPU      0.72s WALL (    1662 calls)

     Called by h_psi:
     h_psi:pot    :     11.21s CPU     11.55s WALL (    1722 calls)
     h_psi:calbec :      0.50s CPU      0.51s WALL (    1722 calls)
     vloc_psi     :     10.46s CPU     10.77s WALL (    1722 calls)
     add_vuspsi   :      0.25s CPU      0.26s WALL (    1722 calls)

     General routines
     calbec       :      0.62s CPU      0.64s WALL (    2142 calls)
     fft          :      0.18s CPU      0.19s WALL (     124 calls)
     ffts         :      0.01s CPU      0.01s WALL (      15 calls)
     fftw         :      9.72s CPU      9.99s WALL (   45606 calls)
     interpolate  :      0.03s CPU      0.04s WALL (      15 calls)
     davcio       :      0.00s CPU      0.00s WALL (      60 calls)

     Parallel routines
     fft_scatter  :      1.66s CPU      1.65s WALL (   45745 calls)

     PWSCF        :    18.77s CPU        20.49s WALL


   This run was terminated on:  16:12:37  11Nov2017            

=------------------------------------------------------------------------------=
   JOB DONE.
=------------------------------------------------------------------------------=
