
     Program PWSCF v.6.1 (svn rev. 13369) starts on 23Nov2017 at  1:37:41 

     This program is part of the open-source Quantum ESPRESSO suite
     for quantum simulation of materials; please cite
         "P. Giannozzi et al., J. Phys.:Condens. Matter 21 395502 (2009);
          URL http://www.quantum-espresso.org", 
     in publications or presentations arising from this work. More details at
     http://www.quantum-espresso.org/quote

     Parallel version (MPI), running on     4 processors
     R & G space division:  proc/nbgrp/npool/nimage =       4
     Waiting for input...
     Reading input from standard input
     Message from routine read_cards :
     DEPRECATED: no units specified in ATOMIC_POSITIONS card
     Message from routine read_cards :
     ATOMIC_POSITIONS: units set to alat

     Current dimensions of program PWSCF are:
     Max number of different atomic species (ntypx) = 10
     Max number of k-points (npk) =  40000
     Max angular momentum in pseudopotentials (lmaxx) =  3

     Subspace diagonalization in iterative solution of the eigenvalue problem:
     a serial algorithm will be used


     Parallelization info
     --------------------
     sticks:   dense  smooth     PW     G-vecs:    dense   smooth      PW
     Min         526     267     78                16188     5748     958
     Max         527     268     79                16193     5750     963
     Sum        2107    1069    313                64767    22995    3839



     bravais-lattice index     =            2
     lattice parameter (alat)  =      12.4400  a.u.
     unit-cell volume          =     481.2837 (a.u.)^3
     number of atoms/cell      =            2
     number of atomic types    =            1
     number of electrons       =        28.00
     number of Kohn-Sham states=           14
     kinetic-energy cutoff     =      50.0000  Ry
     charge density cutoff     =     400.0000  Ry
     convergence threshold     =      1.0E-08
     mixing beta               =       0.7000
     number of iterations used =            8  plain     mixing
     Exchange-correlation      =  SLA  PW   PBX  PBC ( 1  4  3  4 0 0)

     celldm(1)=  12.440000  celldm(2)=   0.000000  celldm(3)=   0.000000
     celldm(4)=   0.000000  celldm(5)=   0.000000  celldm(6)=   0.000000

     crystal axes: (cart. coord. in units of alat)
               a(1) = (  -0.500000   0.000000   0.500000 )  
               a(2) = (   0.000000   0.500000   0.500000 )  
               a(3) = (  -0.500000   0.500000   0.000000 )  

     reciprocal axes: (cart. coord. in units 2 pi/alat)
               b(1) = ( -1.000000 -1.000000  1.000000 )  
               b(2) = (  1.000000  1.000000  1.000000 )  
               b(3) = ( -1.000000  1.000000 -1.000000 )  


     PseudoPot. # 1 for Sn read from file:
     /home/s1333534/quantum_espresso/qe-6.1/pseudo/sn_pbe_v1.4.uspp.F.UPF
     MD5 check sum: 469debedee59599fedebd795477fea03
     Pseudo is Ultrasoft + core correction, Zval = 14.0
     Generated by new atomic code, or converted to UPF format
     Using radial grid of  891 points,  6 beta functions with: 
                l(1) =   0
                l(2) =   0
                l(3) =   1
                l(4) =   1
                l(5) =   2
                l(6) =   2
     Q(r) pseudized with  8 coefficients,  rinner =    1.350   1.350   1.350
                                                       1.350   1.350

     atomic species   valence    mass     pseudopotential
        Sn            14.00   118.71000     Sn( 1.00)

     48 Sym. Ops., with inversion, found (24 have fractional translation)



   Cartesian axes

     site n.     atom                  positions (alat units)
         1           Sn  tau(   1) = (   0.0000000   0.0000000   0.0000000  )
         2           Sn  tau(   2) = (   0.2500000   0.2500000   0.2500000  )

     number of k points=   408

     Number of k-points >= 100: set verbosity='high' to print them.

     Dense  grid:    64767 G-vectors     FFT dimensions: (  60,  60,  60)

     Smooth grid:    22995 G-vectors     FFT dimensions: (  40,  40,  40)

     Estimated max dynamical RAM per process >      74.57MB

     Estimated total allocated dynamical RAM >     298.29MB

     Initial potential from superposition of free atoms

     starting charge   25.99991, renormalised to   28.00000
     Starting wfc are   18 randomized atomic wfcs

     total cpu time spent up to now is        6.0 secs

     per-process dynamical memory:    82.4 Mb

     Self-consistent Calculation

     iteration #  1     ecut=    50.00 Ry     beta=0.70
     Davidson diagonalization with overlap
     ethr =  1.00E-02,  avg # of iterations =  2.7

     total cpu time spent up to now is       21.8 secs

     total energy              =    -317.48843423 Ry
     Harris-Foulkes estimate   =    -319.54252796 Ry
     estimated scf accuracy    <       2.50296449 Ry

     iteration #  2     ecut=    50.00 Ry     beta=0.70
     Davidson diagonalization with overlap
     ethr =  8.94E-03,  avg # of iterations =  3.0

     total cpu time spent up to now is       39.4 secs

     total energy              =    -318.39351862 Ry
     Harris-Foulkes estimate   =    -318.71100746 Ry
     estimated scf accuracy    <       0.47321900 Ry

     iteration #  3     ecut=    50.00 Ry     beta=0.70
     Davidson diagonalization with overlap
     ethr =  1.69E-03,  avg # of iterations =  2.0

     total cpu time spent up to now is       54.9 secs

     total energy              =    -318.48832271 Ry
     Harris-Foulkes estimate   =    -318.48989455 Ry
     estimated scf accuracy    <       0.00288053 Ry

     iteration #  4     ecut=    50.00 Ry     beta=0.70
     Davidson diagonalization with overlap
     ethr =  1.03E-05,  avg # of iterations =  3.0

     total cpu time spent up to now is       71.4 secs

     total energy              =    -318.48921331 Ry
     Harris-Foulkes estimate   =    -318.48933159 Ry
     estimated scf accuracy    <       0.00017551 Ry

     iteration #  5     ecut=    50.00 Ry     beta=0.70
     Davidson diagonalization with overlap
     ethr =  6.27E-07,  avg # of iterations =  3.0

     total cpu time spent up to now is       88.1 secs

     total energy              =    -318.48926681 Ry
     Harris-Foulkes estimate   =    -318.48926750 Ry
     estimated scf accuracy    <       0.00000146 Ry

     iteration #  6     ecut=    50.00 Ry     beta=0.70
     Davidson diagonalization with overlap
     ethr =  5.21E-09,  avg # of iterations =  3.9

     total cpu time spent up to now is      106.4 secs

     total energy              =    -318.48926759 Ry
     Harris-Foulkes estimate   =    -318.48926764 Ry
     estimated scf accuracy    <       0.00000008 Ry

     iteration #  7     ecut=    50.00 Ry     beta=0.70
     Davidson diagonalization with overlap
     ethr =  2.87E-10,  avg # of iterations =  3.1

     total cpu time spent up to now is      123.1 secs

     End of self-consistent calculation

     Number of k-points >= 100: set verbosity='high' to print the bands.

     highest occupied level (ev):     7.3792

!    total energy              =    -318.48926762 Ry
     Harris-Foulkes estimate   =    -318.48926762 Ry
     estimated scf accuracy    <          2.4E-09 Ry

     The total energy is the sum of the following terms:

     one-electron contribution =    -159.23525200 Ry
     hartree contribution      =      96.48298483 Ry
     xc contribution           =     -85.99223893 Ry
     ewald contribution        =    -169.74476152 Ry

     convergence has been achieved in   7 iterations


     Computing stress (Cartesian axis) and pressure

          total   stress  (Ry/bohr**3)                   (kbar)     P=   -6.25
  -0.00004246  -0.00000000  -0.00000000         -6.25     -0.00     -0.00
  -0.00000000  -0.00004246   0.00000000         -0.00     -6.25      0.00
   0.00000000   0.00000000  -0.00004246          0.00      0.00     -6.25


     Writing output data file sn.a.12.44.16.save

     init_run     :      5.67s CPU      5.90s WALL (       1 calls)
     electrons    :    113.87s CPU    117.13s WALL (       1 calls)
     stress       :      3.28s CPU      3.31s WALL (       1 calls)

     Called by init_run:
     wfcinit      :      5.19s CPU      5.39s WALL (       1 calls)
     potinit      :      0.06s CPU      0.06s WALL (       1 calls)

     Called by electrons:
     c_bands      :     98.03s CPU    100.73s WALL (       7 calls)
     sum_band     :     15.03s CPU     15.52s WALL (       7 calls)
     v_of_rho     :      0.35s CPU      0.37s WALL (       8 calls)
     newd         :      0.50s CPU      0.56s WALL (       8 calls)
     mix_rho      :      0.03s CPU      0.03s WALL (       7 calls)

     Called by c_bands:
     init_us_2    :      2.68s CPU      2.75s WALL (    6528 calls)
     cegterg      :     93.18s CPU     95.82s WALL (    2856 calls)

     Called by sum_band:
     sum_band:bec :      0.02s CPU      0.03s WALL (    2856 calls)
     addusdens    :      0.50s CPU      0.61s WALL (       7 calls)

     Called by *egterg:
     h_psi        :     80.59s CPU     83.17s WALL (   11700 calls)
     s_psi        :      1.68s CPU      1.71s WALL (   11700 calls)
     g_psi        :      0.51s CPU      0.52s WALL (    8436 calls)
     cdiaghg      :      4.96s CPU      4.96s WALL (   11292 calls)

     Called by h_psi:
     h_psi:pot    :     79.61s CPU     82.17s WALL (   11700 calls)
     h_psi:calbec :      3.07s CPU      3.14s WALL (   11700 calls)
     vloc_psi     :     74.18s CPU     76.60s WALL (   11700 calls)
     add_vuspsi   :      2.35s CPU      2.40s WALL (   11700 calls)

     General routines
     calbec       :      3.99s CPU      4.06s WALL (   14964 calls)
     fft          :      0.17s CPU      0.18s WALL (     138 calls)
     ffts         :      0.01s CPU      0.01s WALL (      15 calls)
     fftw         :     66.01s CPU     68.64s WALL (  310202 calls)
     interpolate  :      0.03s CPU      0.03s WALL (      15 calls)
     davcio       :      0.01s CPU      0.03s WALL (     408 calls)

     Parallel routines
     fft_scatter  :     11.51s CPU     11.10s WALL (  310355 calls)

     PWSCF        :  2m 3.28s CPU     2m 6.89s WALL


   This run was terminated on:   1:39:48  23Nov2017            

=------------------------------------------------------------------------------=
   JOB DONE.
=------------------------------------------------------------------------------=
