
     Program PWSCF v.6.1 (svn rev. 13369) starts on 23Nov2017 at  1:34:13 

     This program is part of the open-source Quantum ESPRESSO suite
     for quantum simulation of materials; please cite
         "P. Giannozzi et al., J. Phys.:Condens. Matter 21 395502 (2009);
          URL http://www.quantum-espresso.org", 
     in publications or presentations arising from this work. More details at
     http://www.quantum-espresso.org/quote

     Parallel version (MPI), running on     4 processors
     R & G space division:  proc/nbgrp/npool/nimage =       4
     Waiting for input...
     Reading input from standard input
     Message from routine read_cards :
     DEPRECATED: no units specified in ATOMIC_POSITIONS card
     Message from routine read_cards :
     ATOMIC_POSITIONS: units set to alat

     Current dimensions of program PWSCF are:
     Max number of different atomic species (ntypx) = 10
     Max number of k-points (npk) =  40000
     Max angular momentum in pseudopotentials (lmaxx) =  3

     Subspace diagonalization in iterative solution of the eigenvalue problem:
     a serial algorithm will be used


     Parallelization info
     --------------------
     sticks:   dense  smooth     PW     G-vecs:    dense   smooth      PW
     Min         526     267     78                16188     5748     958
     Max         527     268     79                16193     5750     963
     Sum        2107    1069    313                64767    22995    3839



     bravais-lattice index     =            2
     lattice parameter (alat)  =      12.4400  a.u.
     unit-cell volume          =     481.2837 (a.u.)^3
     number of atoms/cell      =            2
     number of atomic types    =            1
     number of electrons       =        28.00
     number of Kohn-Sham states=           14
     kinetic-energy cutoff     =      50.0000  Ry
     charge density cutoff     =     400.0000  Ry
     convergence threshold     =      1.0E-08
     mixing beta               =       0.7000
     number of iterations used =            8  plain     mixing
     Exchange-correlation      =  SLA  PW   PBX  PBC ( 1  4  3  4 0 0)

     celldm(1)=  12.440000  celldm(2)=   0.000000  celldm(3)=   0.000000
     celldm(4)=   0.000000  celldm(5)=   0.000000  celldm(6)=   0.000000

     crystal axes: (cart. coord. in units of alat)
               a(1) = (  -0.500000   0.000000   0.500000 )  
               a(2) = (   0.000000   0.500000   0.500000 )  
               a(3) = (  -0.500000   0.500000   0.000000 )  

     reciprocal axes: (cart. coord. in units 2 pi/alat)
               b(1) = ( -1.000000 -1.000000  1.000000 )  
               b(2) = (  1.000000  1.000000  1.000000 )  
               b(3) = ( -1.000000  1.000000 -1.000000 )  


     PseudoPot. # 1 for Sn read from file:
     /home/s1333534/quantum_espresso/qe-6.1/pseudo/sn_pbe_v1.4.uspp.F.UPF
     MD5 check sum: 469debedee59599fedebd795477fea03
     Pseudo is Ultrasoft + core correction, Zval = 14.0
     Generated by new atomic code, or converted to UPF format
     Using radial grid of  891 points,  6 beta functions with: 
                l(1) =   0
                l(2) =   0
                l(3) =   1
                l(4) =   1
                l(5) =   2
                l(6) =   2
     Q(r) pseudized with  8 coefficients,  rinner =    1.350   1.350   1.350
                                                       1.350   1.350

     atomic species   valence    mass     pseudopotential
        Sn            14.00   118.71000     Sn( 1.00)

     48 Sym. Ops., with inversion, found (24 have fractional translation)



   Cartesian axes

     site n.     atom                  positions (alat units)
         1           Sn  tau(   1) = (   0.0000000   0.0000000   0.0000000  )
         2           Sn  tau(   2) = (   0.2500000   0.2500000   0.2500000  )

     number of k points=    28
                       cart. coord. in units 2pi/alat
        k(    1) = (  -0.0833333   0.0833333   0.0833333), wk =   0.0185185
        k(    2) = (  -0.2500000   0.2500000  -0.0833333), wk =   0.0555556
        k(    3) = (  -0.4166667   0.4166667  -0.2500000), wk =   0.0555556
        k(    4) = (   0.4166667  -0.4166667   0.5833333), wk =   0.0555556
        k(    5) = (   0.2500000  -0.2500000   0.4166667), wk =   0.0555556
        k(    6) = (   0.0833333  -0.0833333   0.2500000), wk =   0.0555556
        k(    7) = (  -0.0833333   0.4166667   0.0833333), wk =   0.0555556
        k(    8) = (  -0.2500000   0.5833333  -0.0833333), wk =   0.1111111
        k(    9) = (   0.5833333  -0.2500000   0.7500000), wk =   0.1111111
        k(   10) = (   0.4166667  -0.0833333   0.5833333), wk =   0.1111111
        k(   11) = (   0.2500000   0.0833333   0.4166667), wk =   0.1111111
        k(   12) = (  -0.0833333   0.7500000   0.0833333), wk =   0.0555556
        k(   13) = (   0.7500000  -0.0833333   0.9166667), wk =   0.1111111
        k(   14) = (   0.5833333   0.0833333   0.7500000), wk =   0.1111111
        k(   15) = (   0.4166667   0.2500000   0.5833333), wk =   0.1111111
        k(   16) = (  -0.0833333  -0.9166667   0.0833333), wk =   0.0555556
        k(   17) = (  -0.2500000  -0.7500000  -0.0833333), wk =   0.1111111
        k(   18) = (  -0.0833333  -0.5833333   0.0833333), wk =   0.0555556
        k(   19) = (  -0.2500000   0.2500000   0.2500000), wk =   0.0185185
        k(   20) = (  -0.4166667   0.4166667   0.0833333), wk =   0.0555556
        k(   21) = (   0.4166667  -0.4166667   0.9166667), wk =   0.0555556
        k(   22) = (   0.2500000  -0.2500000   0.7500000), wk =   0.0555556
        k(   23) = (  -0.2500000   0.5833333   0.2500000), wk =   0.0555556
        k(   24) = (   0.5833333  -0.2500000   1.0833333), wk =   0.1111111
        k(   25) = (   0.4166667  -0.0833333   0.9166667), wk =   0.1111111
        k(   26) = (  -0.2500000  -1.0833333   0.2500000), wk =   0.0555556
        k(   27) = (  -0.4166667   0.4166667   0.4166667), wk =   0.0185185
        k(   28) = (   0.4166667  -0.4166667   1.2500000), wk =   0.0555556

     Dense  grid:    64767 G-vectors     FFT dimensions: (  60,  60,  60)

     Smooth grid:    22995 G-vectors     FFT dimensions: (  40,  40,  40)

     Estimated max dynamical RAM per process >      16.29MB

     Estimated total allocated dynamical RAM >      65.15MB

     Initial potential from superposition of free atoms

     starting charge   25.99991, renormalised to   28.00000
     Starting wfc are   18 randomized atomic wfcs

     total cpu time spent up to now is        1.1 secs

     per-process dynamical memory:    20.1 Mb

     Self-consistent Calculation

     iteration #  1     ecut=    50.00 Ry     beta=0.70
     Davidson diagonalization with overlap
     ethr =  1.00E-02,  avg # of iterations =  2.6

     total cpu time spent up to now is        2.5 secs

     total energy              =    -317.48873458 Ry
     Harris-Foulkes estimate   =    -319.54244719 Ry
     estimated scf accuracy    <       2.50250426 Ry

     iteration #  2     ecut=    50.00 Ry     beta=0.70
     Davidson diagonalization with overlap
     ethr =  8.94E-03,  avg # of iterations =  3.0

     total cpu time spent up to now is        3.9 secs

     total energy              =    -318.39346248 Ry
     Harris-Foulkes estimate   =    -318.71058809 Ry
     estimated scf accuracy    <       0.47273234 Ry

     iteration #  3     ecut=    50.00 Ry     beta=0.70
     Davidson diagonalization with overlap
     ethr =  1.69E-03,  avg # of iterations =  2.0

     total cpu time spent up to now is        5.1 secs

     total energy              =    -318.48820724 Ry
     Harris-Foulkes estimate   =    -318.48978205 Ry
     estimated scf accuracy    <       0.00288975 Ry

     iteration #  4     ecut=    50.00 Ry     beta=0.70
     Davidson diagonalization with overlap
     ethr =  1.03E-05,  avg # of iterations =  3.1

     total cpu time spent up to now is        6.4 secs

     total energy              =    -318.48910245 Ry
     Harris-Foulkes estimate   =    -318.48921918 Ry
     estimated scf accuracy    <       0.00017326 Ry

     iteration #  5     ecut=    50.00 Ry     beta=0.70
     Davidson diagonalization with overlap
     ethr =  6.19E-07,  avg # of iterations =  2.9

     total cpu time spent up to now is        7.7 secs

     total energy              =    -318.48915456 Ry
     Harris-Foulkes estimate   =    -318.48915512 Ry
     estimated scf accuracy    <       0.00000128 Ry

     iteration #  6     ecut=    50.00 Ry     beta=0.70
     Davidson diagonalization with overlap
     ethr =  4.56E-09,  avg # of iterations =  3.8

     total cpu time spent up to now is        9.1 secs

     total energy              =    -318.48915527 Ry
     Harris-Foulkes estimate   =    -318.48915533 Ry
     estimated scf accuracy    <       0.00000009 Ry

     iteration #  7     ecut=    50.00 Ry     beta=0.70
     Davidson diagonalization with overlap
     ethr =  3.06E-10,  avg # of iterations =  3.2

     total cpu time spent up to now is       10.4 secs

     End of self-consistent calculation

          k =-0.0833 0.0833 0.0833 (  2821 PWs)   bands (ev):

   -14.3077 -14.3077 -14.3010 -14.2438 -14.2438 -13.9887 -13.9887 -13.9770
   -13.9582 -13.9582  -2.9471   5.6314   7.2684   7.2684

          k =-0.2500 0.2500-0.0833 (  2860 PWs)   bands (ev):

   -14.3258 -14.3204 -14.2941 -14.2266 -14.2151 -14.0224 -14.0093 -13.9770
   -13.9500 -13.9348  -2.6107   3.9443   6.1962   7.0275

          k =-0.4167 0.4167-0.2500 (  2880 PWs)   bands (ev):

   -14.3380 -14.3377 -14.2748 -14.2048 -14.1921 -14.0410 -14.0259 -14.0062
   -13.9273 -13.9238  -1.8663   1.9608   5.6797   6.4477

          k = 0.4167-0.4167 0.5833 (  2877 PWs)   bands (ev):

   -14.3439 -14.3374 -14.2694 -14.1931 -14.1917 -14.0410 -14.0352 -14.0125
   -13.9259 -13.9186  -1.4389   1.1964   5.6647   6.1357

          k = 0.2500-0.2500 0.4167 (  2870 PWs)   bands (ev):

   -14.3370 -14.3292 -14.2845 -14.2102 -14.1954 -14.0455 -14.0171 -13.9918
   -13.9366 -13.9249  -2.1399   2.5613   6.0785   6.2362

          k = 0.0833-0.0833 0.2500 (  2845 PWs)   bands (ev):

   -14.3178 -14.3132 -14.3025 -14.2364 -14.2220 -14.0220 -13.9895 -13.9711
   -13.9573 -13.9438  -2.7765   4.6679   6.7266   6.7500

          k =-0.0833 0.4167 0.0833 (  2864 PWs)   bands (ev):

   -14.3283 -14.3236 -14.3020 -14.2197 -14.1881 -14.0643 -14.0020 -13.9634
   -13.9472 -13.9355  -2.4381   3.5754   6.0307   6.1117

          k =-0.2500 0.5833-0.0833 (  2878 PWs)   bands (ev):

   -14.3471 -14.3400 -14.2730 -14.1938 -14.1557 -14.0976 -14.0296 -13.9938
   -13.9242 -13.9154  -1.8022   2.1686   5.0493   5.7624

          k = 0.5833-0.2500 0.7500 (  2880 PWs)   bands (ev):

   -14.3626 -14.3468 -14.2405 -14.1704 -14.1553 -14.0911 -14.0594 -14.0286
   -13.9138 -13.8981  -1.0864   1.0194   4.5228   5.6004

          k = 0.4167-0.0833 0.5833 (  2875 PWs)   bands (ev):

   -14.3552 -14.3460 -14.2484 -14.1913 -14.1597 -14.0818 -14.0363 -14.0278
   -13.9142 -13.9074  -1.5433   1.7044   4.5847   5.9592

          k = 0.2500 0.0833 0.4167 (  2867 PWs)   bands (ev):

   -14.3356 -14.3304 -14.2852 -14.2148 -14.1901 -14.0556 -14.0127 -13.9848
   -13.9381 -13.9256  -2.2830   3.0658   5.5743   6.4562

          k =-0.0833 0.7500 0.0833 (  2877 PWs)   bands (ev):

   -14.3485 -14.3441 -14.2719 -14.1635 -14.1577 -14.1038 -14.0569 -13.9895
   -13.9178 -13.9130  -1.2851   1.4165   5.0269   5.2364

          k = 0.7500-0.0833 0.9167 (  2882 PWs)   bands (ev):

   -14.3620 -14.3534 -14.2262 -14.1803 -14.1301 -14.0928 -14.0804 -14.0365
   -13.9060 -13.8973  -0.4603   0.4126   4.4802   4.9767

          k = 0.5833 0.0833 0.7500 (  2877 PWs)   bands (ev):

   -14.3687 -14.3516 -14.2246 -14.1497 -14.1319 -14.1163 -14.0844 -14.0392
   -13.9076 -13.8911  -0.7817   0.7650   4.1389   5.3912

          k = 0.4167 0.2500 0.5833 (  2874 PWs)   bands (ev):

   -14.3511 -14.3406 -14.2591 -14.1924 -14.1765 -14.0622 -14.0357 -14.0183
   -13.9214 -13.9110  -1.4933   1.4311   5.1049   6.0176

          k =-0.0833-0.9167 0.0833 (  2873 PWs)   bands (ev):

   -14.3536 -14.3493 -14.2418 -14.2016 -14.1282 -14.0916 -14.0612 -14.0209
   -13.9099 -13.9056  -0.4958   0.4173   4.8181   5.0516

          k =-0.2500-0.7500-0.0833 (  2880 PWs)   bands (ev):

   -14.3566 -14.3484 -14.2529 -14.1645 -14.1416 -14.1165 -14.0585 -14.0109
   -13.9128 -13.9041  -1.1839   1.2747   4.6756   5.2446

          k =-0.0833-0.5833 0.0833 (  2873 PWs)   bands (ev):

   -14.3393 -14.3345 -14.2924 -14.1949 -14.1476 -14.1105 -14.0260 -13.9686
   -13.9316 -13.9250  -1.9377   2.4796   5.4376   5.5971

          k =-0.2500 0.2500 0.2500 (  2872 PWs)   bands (ev):

   -14.3262 -14.3262 -14.2916 -14.2159 -14.2159 -14.0173 -14.0173 -13.9901
   -13.9375 -13.9375  -2.4516   3.3100   6.6917   6.6917

          k =-0.4167 0.4167 0.0833 (  2870 PWs)   bands (ev):

   -14.3431 -14.3405 -14.2654 -14.2075 -14.1818 -14.0535 -14.0273 -14.0095
   -13.9232 -13.9191  -1.9796   2.3922   5.0204   6.5174

          k = 0.4167-0.4167 0.9167 (  2869 PWs)   bands (ev):

   -14.3642 -14.3474 -14.2350 -14.1739 -14.1527 -14.0773 -14.0729 -14.0338
   -13.9116 -13.8968  -1.1876   1.2164   4.2517   5.8857

          k = 0.2500-0.2500 0.7500 (  2880 PWs)   bands (ev):

   -14.3618 -14.3444 -14.2500 -14.1658 -14.1400 -14.1152 -14.0586 -14.0154
   -13.9170 -13.8986  -1.1372   1.1473   4.5491   5.5106

          k =-0.2500 0.5833 0.2500 (  2884 PWs)   bands (ev):

   -14.3507 -14.3364 -14.2703 -14.1930 -14.1680 -14.0814 -14.0320 -13.9992
   -13.9281 -13.9113  -1.6909   1.8370   5.2216   5.8175

          k = 0.5833-0.2500 1.0833 (  2875 PWs)   bands (ev):

   -14.3637 -14.3531 -14.2290 -14.1649 -14.1313 -14.1180 -14.0653 -14.0369
   -13.9066 -13.8967  -1.0021   1.0332   4.3335   5.2807

          k = 0.4167-0.0833 0.9167 (  2874 PWs)   bands (ev):

   -14.3669 -14.3592 -14.2052 -14.1560 -14.1338 -14.1021 -14.0935 -14.0552
   -13.8999 -13.8920  -0.4223   0.4054   4.2743   4.8138

          k =-0.2500-1.0833 0.2500 (  2878 PWs)   bands (ev):

   -14.3681 -14.3494 -14.2306 -14.1491 -14.1340 -14.1096 -14.0903 -14.0328
   -13.9097 -13.8911  -0.5812   0.5410   4.1824   5.3500

          k =-0.4167 0.4167 0.4167 (  2869 PWs)   bands (ev):

   -14.3349 -14.3349 -14.2806 -14.1994 -14.1994 -14.0304 -14.0304 -14.0028
   -13.9281 -13.9281  -1.6662   1.4950   6.3105   6.3105

          k = 0.4167-0.4167 1.2500 (  2878 PWs)   bands (ev):

   -14.3568 -14.3430 -14.2497 -14.1826 -14.1742 -14.0569 -14.0550 -14.0265
   -13.9176 -13.9052  -1.2656   1.1337   4.8105   5.9778

     highest occupied level (ev):     7.2684

!    total energy              =    -318.48915530 Ry
     Harris-Foulkes estimate   =    -318.48915530 Ry
     estimated scf accuracy    <          1.7E-09 Ry

     The total energy is the sum of the following terms:

     one-electron contribution =    -159.23629456 Ry
     hartree contribution      =      96.48427704 Ry
     xc contribution           =     -85.99237627 Ry
     ewald contribution        =    -169.74476152 Ry

     convergence has been achieved in   7 iterations


     Computing stress (Cartesian axis) and pressure

          total   stress  (Ry/bohr**3)                   (kbar)     P=   -6.22
  -0.00004231  -0.00000000   0.00000000         -6.22     -0.00      0.00
  -0.00000000  -0.00004231   0.00000000         -0.00     -6.22      0.00
   0.00000000  -0.00000000  -0.00004231          0.00     -0.00     -6.22


     Writing output data file sn.a.12.44.6.save

     init_run     :      0.91s CPU      1.03s WALL (       1 calls)
     electrons    :      8.85s CPU      9.24s WALL (       1 calls)
     stress       :      0.73s CPU      0.77s WALL (       1 calls)

     Called by init_run:
     wfcinit      :      0.34s CPU      0.37s WALL (       1 calls)
     potinit      :      0.15s CPU      0.17s WALL (       1 calls)

     Called by electrons:
     c_bands      :      6.39s CPU      6.59s WALL (       7 calls)
     sum_band     :      1.64s CPU      1.75s WALL (       7 calls)
     v_of_rho     :      0.42s CPU      0.43s WALL (       8 calls)
     newd         :      0.50s CPU      0.56s WALL (       8 calls)
     mix_rho      :      0.03s CPU      0.05s WALL (       7 calls)

     Called by c_bands:
     init_us_2    :      0.18s CPU      0.19s WALL (     448 calls)
     cegterg      :      6.06s CPU      6.25s WALL (     196 calls)

     Called by sum_band:
     sum_band:bec :      0.00s CPU      0.00s WALL (     196 calls)
     addusdens    :      0.53s CPU      0.62s WALL (       7 calls)

     Called by *egterg:
     h_psi        :      5.22s CPU      5.40s WALL (     804 calls)
     s_psi        :      0.09s CPU      0.10s WALL (     804 calls)
     g_psi        :      0.03s CPU      0.04s WALL (     580 calls)
     cdiaghg      :      0.35s CPU      0.38s WALL (     776 calls)

     Called by h_psi:
     h_psi:pot    :      5.19s CPU      5.36s WALL (     804 calls)
     h_psi:calbec :      0.22s CPU      0.22s WALL (     804 calls)
     vloc_psi     :      4.85s CPU      5.01s WALL (     804 calls)
     add_vuspsi   :      0.12s CPU      0.12s WALL (     804 calls)

     General routines
     calbec       :      0.29s CPU      0.29s WALL (    1028 calls)
     fft          :      0.27s CPU      0.34s WALL (     138 calls)
     ffts         :      0.01s CPU      0.01s WALL (      15 calls)
     fftw         :      4.69s CPU      4.81s WALL (   21284 calls)
     interpolate  :      0.03s CPU      0.03s WALL (      15 calls)
     davcio       :      0.00s CPU      0.00s WALL (      28 calls)

     Parallel routines
     fft_scatter  :      1.00s CPU      1.04s WALL (   21437 calls)

     PWSCF        :    10.60s CPU        11.21s WALL


   This run was terminated on:   1:34:24  23Nov2017            

=------------------------------------------------------------------------------=
   JOB DONE.
=------------------------------------------------------------------------------=
