
     Program PWSCF v.6.1 (svn rev. 13369) starts on 23Nov2017 at  1:42:44 

     This program is part of the open-source Quantum ESPRESSO suite
     for quantum simulation of materials; please cite
         "P. Giannozzi et al., J. Phys.:Condens. Matter 21 395502 (2009);
          URL http://www.quantum-espresso.org", 
     in publications or presentations arising from this work. More details at
     http://www.quantum-espresso.org/quote

     Parallel version (MPI), running on     4 processors
     R & G space division:  proc/nbgrp/npool/nimage =       4
     Waiting for input...
     Reading input from standard input
     Message from routine read_cards :
     DEPRECATED: no units specified in ATOMIC_POSITIONS card
     Message from routine read_cards :
     ATOMIC_POSITIONS: units set to alat

     Current dimensions of program PWSCF are:
     Max number of different atomic species (ntypx) = 10
     Max number of k-points (npk) =  40000
     Max angular momentum in pseudopotentials (lmaxx) =  3

     Subspace diagonalization in iterative solution of the eigenvalue problem:
     a serial algorithm will be used


     Parallelization info
     --------------------
     sticks:   dense  smooth     PW     G-vecs:    dense   smooth      PW
     Min         526     267     78                16188     5748     958
     Max         527     268     79                16193     5750     963
     Sum        2107    1069    313                64767    22995    3839



     bravais-lattice index     =            2
     lattice parameter (alat)  =      12.4400  a.u.
     unit-cell volume          =     481.2837 (a.u.)^3
     number of atoms/cell      =            2
     number of atomic types    =            1
     number of electrons       =        28.00
     number of Kohn-Sham states=           14
     kinetic-energy cutoff     =      50.0000  Ry
     charge density cutoff     =     400.0000  Ry
     convergence threshold     =      1.0E-08
     mixing beta               =       0.7000
     number of iterations used =            8  plain     mixing
     Exchange-correlation      =  SLA  PW   PBX  PBC ( 1  4  3  4 0 0)

     celldm(1)=  12.440000  celldm(2)=   0.000000  celldm(3)=   0.000000
     celldm(4)=   0.000000  celldm(5)=   0.000000  celldm(6)=   0.000000

     crystal axes: (cart. coord. in units of alat)
               a(1) = (  -0.500000   0.000000   0.500000 )  
               a(2) = (   0.000000   0.500000   0.500000 )  
               a(3) = (  -0.500000   0.500000   0.000000 )  

     reciprocal axes: (cart. coord. in units 2 pi/alat)
               b(1) = ( -1.000000 -1.000000  1.000000 )  
               b(2) = (  1.000000  1.000000  1.000000 )  
               b(3) = ( -1.000000  1.000000 -1.000000 )  


     PseudoPot. # 1 for Sn read from file:
     /home/s1333534/quantum_espresso/qe-6.1/pseudo/sn_pbe_v1.4.uspp.F.UPF
     MD5 check sum: 469debedee59599fedebd795477fea03
     Pseudo is Ultrasoft + core correction, Zval = 14.0
     Generated by new atomic code, or converted to UPF format
     Using radial grid of  891 points,  6 beta functions with: 
                l(1) =   0
                l(2) =   0
                l(3) =   1
                l(4) =   1
                l(5) =   2
                l(6) =   2
     Q(r) pseudized with  8 coefficients,  rinner =    1.350   1.350   1.350
                                                       1.350   1.350

     atomic species   valence    mass     pseudopotential
        Sn            14.00   118.71000     Sn( 1.00)

     48 Sym. Ops., with inversion, found (24 have fractional translation)



   Cartesian axes

     site n.     atom                  positions (alat units)
         1           Sn  tau(   1) = (   0.0000000   0.0000000   0.0000000  )
         2           Sn  tau(   2) = (   0.2500000   0.2500000   0.2500000  )

     number of k points=   770

     Number of k-points >= 100: set verbosity='high' to print them.

     Dense  grid:    64767 G-vectors     FFT dimensions: (  60,  60,  60)

     Smooth grid:    22995 G-vectors     FFT dimensions: (  40,  40,  40)

     Estimated max dynamical RAM per process >     130.10MB

     Estimated total allocated dynamical RAM >     520.38MB

     Initial potential from superposition of free atoms

     starting charge   25.99991, renormalised to   28.00000
     Starting wfc are   18 randomized atomic wfcs

     total cpu time spent up to now is       10.4 secs

     per-process dynamical memory:   141.9 Mb

     Self-consistent Calculation

     iteration #  1     ecut=    50.00 Ry     beta=0.70
     Davidson diagonalization with overlap
     ethr =  1.00E-02,  avg # of iterations =  2.7

     total cpu time spent up to now is       39.1 secs

     total energy              =    -317.48838015 Ry
     Harris-Foulkes estimate   =    -319.54252623 Ry
     estimated scf accuracy    <       2.50302662 Ry

     iteration #  2     ecut=    50.00 Ry     beta=0.70
     Davidson diagonalization with overlap
     ethr =  8.94E-03,  avg # of iterations =  3.0

     total cpu time spent up to now is       70.6 secs

     total energy              =    -318.39351399 Ry
     Harris-Foulkes estimate   =    -318.71102723 Ry
     estimated scf accuracy    <       0.47325771 Ry

     iteration #  3     ecut=    50.00 Ry     beta=0.70
     Davidson diagonalization with overlap
     ethr =  1.69E-03,  avg # of iterations =  2.0

     total cpu time spent up to now is       98.1 secs

     total energy              =    -318.48832123 Ry
     Harris-Foulkes estimate   =    -318.48989363 Ry
     estimated scf accuracy    <       0.00288107 Ry

     iteration #  4     ecut=    50.00 Ry     beta=0.70
     Davidson diagonalization with overlap
     ethr =  1.03E-05,  avg # of iterations =  2.9

     total cpu time spent up to now is      127.5 secs

     total energy              =    -318.48921231 Ry
     Harris-Foulkes estimate   =    -318.48933064 Ry
     estimated scf accuracy    <       0.00017560 Ry

     iteration #  5     ecut=    50.00 Ry     beta=0.70
     Davidson diagonalization with overlap
     ethr =  6.27E-07,  avg # of iterations =  3.0

     total cpu time spent up to now is      158.6 secs

     total energy              =    -318.48926583 Ry
     Harris-Foulkes estimate   =    -318.48926651 Ry
     estimated scf accuracy    <       0.00000145 Ry

     iteration #  6     ecut=    50.00 Ry     beta=0.70
     Davidson diagonalization with overlap
     ethr =  5.19E-09,  avg # of iterations =  4.0

     total cpu time spent up to now is      191.1 secs

     total energy              =    -318.48926662 Ry
     Harris-Foulkes estimate   =    -318.48926667 Ry
     estimated scf accuracy    <       0.00000008 Ry

     iteration #  7     ecut=    50.00 Ry     beta=0.70
     Davidson diagonalization with overlap
     ethr =  2.95E-10,  avg # of iterations =  3.1

     total cpu time spent up to now is      221.6 secs

     End of self-consistent calculation

     Number of k-points >= 100: set verbosity='high' to print the bands.

     highest occupied level (ev):     7.3864

!    total energy              =    -318.48926665 Ry
     Harris-Foulkes estimate   =    -318.48926665 Ry
     estimated scf accuracy    <          2.4E-09 Ry

     The total energy is the sum of the following terms:

     one-electron contribution =    -159.23524898 Ry
     hartree contribution      =      96.48298315 Ry
     xc contribution           =     -85.99223930 Ry
     ewald contribution        =    -169.74476152 Ry

     convergence has been achieved in   7 iterations


     Computing stress (Cartesian axis) and pressure

          total   stress  (Ry/bohr**3)                   (kbar)     P=   -6.24
  -0.00004244   0.00000000   0.00000000         -6.24      0.00      0.00
   0.00000000  -0.00004244  -0.00000000          0.00     -6.24     -0.00
   0.00000000  -0.00000000  -0.00004244          0.00     -0.00     -6.24


     Writing output data file sn.a.12.44.20.save

     init_run     :     10.01s CPU     10.30s WALL (       1 calls)
     electrons    :    205.55s CPU    211.21s WALL (       1 calls)
     stress       :      5.63s CPU      5.67s WALL (       1 calls)

     Called by init_run:
     wfcinit      :      9.50s CPU      9.76s WALL (       1 calls)
     potinit      :      0.06s CPU      0.06s WALL (       1 calls)

     Called by electrons:
     c_bands      :    177.39s CPU    182.21s WALL (       7 calls)
     sum_band     :     27.33s CPU     28.11s WALL (       7 calls)
     v_of_rho     :      0.37s CPU      0.37s WALL (       8 calls)
     newd         :      0.52s CPU      0.59s WALL (       8 calls)
     mix_rho      :      0.03s CPU      0.03s WALL (       7 calls)

     Called by c_bands:
     init_us_2    :      5.09s CPU      5.17s WALL (   12320 calls)
     cegterg      :    168.49s CPU    173.21s WALL (    5390 calls)

     Called by sum_band:
     sum_band:bec :      0.03s CPU      0.06s WALL (    5390 calls)
     addusdens    :      0.52s CPU      0.61s WALL (       7 calls)

     Called by *egterg:
     h_psi        :    145.58s CPU    150.11s WALL (   22108 calls)
     s_psi        :      2.61s CPU      2.64s WALL (   22108 calls)
     g_psi        :      0.96s CPU      0.97s WALL (   15948 calls)
     cdiaghg      :      9.54s CPU      9.60s WALL (   21338 calls)

     Called by h_psi:
     h_psi:pot    :    144.33s CPU    148.83s WALL (   22108 calls)
     h_psi:calbec :      6.07s CPU      6.16s WALL (   22108 calls)
     vloc_psi     :    135.03s CPU    139.32s WALL (   22108 calls)
     add_vuspsi   :      3.19s CPU      3.26s WALL (   22108 calls)

     General routines
     calbec       :      7.74s CPU      7.85s WALL (   28268 calls)
     fft          :      0.18s CPU      0.19s WALL (     138 calls)
     ffts         :      0.01s CPU      0.01s WALL (      15 calls)
     fftw         :    125.66s CPU    130.31s WALL (  585496 calls)
     interpolate  :      0.03s CPU      0.03s WALL (      15 calls)
     davcio       :      0.02s CPU      0.07s WALL (     770 calls)

     Parallel routines
     fft_scatter  :     22.67s CPU     21.98s WALL (  585649 calls)

     PWSCF        :  3m41.97s CPU     3m48.11s WALL


   This run was terminated on:   1:46:32  23Nov2017            

=------------------------------------------------------------------------------=
   JOB DONE.
=------------------------------------------------------------------------------=
