
     Program PWSCF v.6.1 (svn rev. 13369) starts on 23Nov2017 at  1:34:25 

     This program is part of the open-source Quantum ESPRESSO suite
     for quantum simulation of materials; please cite
         "P. Giannozzi et al., J. Phys.:Condens. Matter 21 395502 (2009);
          URL http://www.quantum-espresso.org", 
     in publications or presentations arising from this work. More details at
     http://www.quantum-espresso.org/quote

     Parallel version (MPI), running on     4 processors
     R & G space division:  proc/nbgrp/npool/nimage =       4
     Waiting for input...
     Reading input from standard input
     Message from routine read_cards :
     DEPRECATED: no units specified in ATOMIC_POSITIONS card
     Message from routine read_cards :
     ATOMIC_POSITIONS: units set to alat

     Current dimensions of program PWSCF are:
     Max number of different atomic species (ntypx) = 10
     Max number of k-points (npk) =  40000
     Max angular momentum in pseudopotentials (lmaxx) =  3

     Subspace diagonalization in iterative solution of the eigenvalue problem:
     a serial algorithm will be used


     Parallelization info
     --------------------
     sticks:   dense  smooth     PW     G-vecs:    dense   smooth      PW
     Min         526     267     78                16188     5748     958
     Max         527     268     79                16193     5750     963
     Sum        2107    1069    313                64767    22995    3839



     bravais-lattice index     =            2
     lattice parameter (alat)  =      12.4400  a.u.
     unit-cell volume          =     481.2837 (a.u.)^3
     number of atoms/cell      =            2
     number of atomic types    =            1
     number of electrons       =        28.00
     number of Kohn-Sham states=           14
     kinetic-energy cutoff     =      50.0000  Ry
     charge density cutoff     =     400.0000  Ry
     convergence threshold     =      1.0E-08
     mixing beta               =       0.7000
     number of iterations used =            8  plain     mixing
     Exchange-correlation      =  SLA  PW   PBX  PBC ( 1  4  3  4 0 0)

     celldm(1)=  12.440000  celldm(2)=   0.000000  celldm(3)=   0.000000
     celldm(4)=   0.000000  celldm(5)=   0.000000  celldm(6)=   0.000000

     crystal axes: (cart. coord. in units of alat)
               a(1) = (  -0.500000   0.000000   0.500000 )  
               a(2) = (   0.000000   0.500000   0.500000 )  
               a(3) = (  -0.500000   0.500000   0.000000 )  

     reciprocal axes: (cart. coord. in units 2 pi/alat)
               b(1) = ( -1.000000 -1.000000  1.000000 )  
               b(2) = (  1.000000  1.000000  1.000000 )  
               b(3) = ( -1.000000  1.000000 -1.000000 )  


     PseudoPot. # 1 for Sn read from file:
     /home/s1333534/quantum_espresso/qe-6.1/pseudo/sn_pbe_v1.4.uspp.F.UPF
     MD5 check sum: 469debedee59599fedebd795477fea03
     Pseudo is Ultrasoft + core correction, Zval = 14.0
     Generated by new atomic code, or converted to UPF format
     Using radial grid of  891 points,  6 beta functions with: 
                l(1) =   0
                l(2) =   0
                l(3) =   1
                l(4) =   1
                l(5) =   2
                l(6) =   2
     Q(r) pseudized with  8 coefficients,  rinner =    1.350   1.350   1.350
                                                       1.350   1.350

     atomic species   valence    mass     pseudopotential
        Sn            14.00   118.71000     Sn( 1.00)

     48 Sym. Ops., with inversion, found (24 have fractional translation)



   Cartesian axes

     site n.     atom                  positions (alat units)
         1           Sn  tau(   1) = (   0.0000000   0.0000000   0.0000000  )
         2           Sn  tau(   2) = (   0.2500000   0.2500000   0.2500000  )

     number of k points=    60
                       cart. coord. in units 2pi/alat
        k(    1) = (  -0.0625000   0.0625000   0.0625000), wk =   0.0078125
        k(    2) = (  -0.1875000   0.1875000  -0.0625000), wk =   0.0234375
        k(    3) = (  -0.3125000   0.3125000  -0.1875000), wk =   0.0234375
        k(    4) = (  -0.4375000   0.4375000  -0.3125000), wk =   0.0234375
        k(    5) = (   0.4375000  -0.4375000   0.5625000), wk =   0.0234375
        k(    6) = (   0.3125000  -0.3125000   0.4375000), wk =   0.0234375
        k(    7) = (   0.1875000  -0.1875000   0.3125000), wk =   0.0234375
        k(    8) = (   0.0625000  -0.0625000   0.1875000), wk =   0.0234375
        k(    9) = (  -0.0625000   0.3125000   0.0625000), wk =   0.0234375
        k(   10) = (  -0.1875000   0.4375000  -0.0625000), wk =   0.0468750
        k(   11) = (  -0.3125000   0.5625000  -0.1875000), wk =   0.0468750
        k(   12) = (   0.5625000  -0.3125000   0.6875000), wk =   0.0468750
        k(   13) = (   0.4375000  -0.1875000   0.5625000), wk =   0.0468750
        k(   14) = (   0.3125000  -0.0625000   0.4375000), wk =   0.0468750
        k(   15) = (   0.1875000   0.0625000   0.3125000), wk =   0.0468750
        k(   16) = (  -0.0625000   0.5625000   0.0625000), wk =   0.0234375
        k(   17) = (  -0.1875000   0.6875000  -0.0625000), wk =   0.0468750
        k(   18) = (   0.6875000  -0.1875000   0.8125000), wk =   0.0468750
        k(   19) = (   0.5625000  -0.0625000   0.6875000), wk =   0.0468750
        k(   20) = (   0.4375000   0.0625000   0.5625000), wk =   0.0468750
        k(   21) = (   0.3125000   0.1875000   0.4375000), wk =   0.0468750
        k(   22) = (  -0.0625000   0.8125000   0.0625000), wk =   0.0234375
        k(   23) = (   0.8125000  -0.0625000   0.9375000), wk =   0.0468750
        k(   24) = (   0.6875000   0.0625000   0.8125000), wk =   0.0468750
        k(   25) = (   0.5625000   0.1875000   0.6875000), wk =   0.0468750
        k(   26) = (   0.4375000   0.3125000   0.5625000), wk =   0.0468750
        k(   27) = (  -0.0625000  -0.9375000   0.0625000), wk =   0.0234375
        k(   28) = (  -0.1875000  -0.8125000  -0.0625000), wk =   0.0468750
        k(   29) = (  -0.3125000  -0.6875000  -0.1875000), wk =   0.0468750
        k(   30) = (  -0.0625000  -0.6875000   0.0625000), wk =   0.0234375
        k(   31) = (  -0.1875000  -0.5625000  -0.0625000), wk =   0.0468750
        k(   32) = (  -0.0625000  -0.4375000   0.0625000), wk =   0.0234375
        k(   33) = (  -0.1875000   0.1875000   0.1875000), wk =   0.0078125
        k(   34) = (  -0.3125000   0.3125000   0.0625000), wk =   0.0234375
        k(   35) = (  -0.4375000   0.4375000  -0.0625000), wk =   0.0234375
        k(   36) = (   0.4375000  -0.4375000   0.8125000), wk =   0.0234375
        k(   37) = (   0.3125000  -0.3125000   0.6875000), wk =   0.0234375
        k(   38) = (   0.1875000  -0.1875000   0.5625000), wk =   0.0234375
        k(   39) = (  -0.1875000   0.4375000   0.1875000), wk =   0.0234375
        k(   40) = (  -0.3125000   0.5625000   0.0625000), wk =   0.0468750
        k(   41) = (   0.5625000  -0.3125000   0.9375000), wk =   0.0468750
        k(   42) = (   0.4375000  -0.1875000   0.8125000), wk =   0.0468750
        k(   43) = (   0.3125000  -0.0625000   0.6875000), wk =   0.0468750
        k(   44) = (  -0.1875000   0.6875000   0.1875000), wk =   0.0234375
        k(   45) = (   0.6875000  -0.1875000   1.0625000), wk =   0.0468750
        k(   46) = (   0.5625000  -0.0625000   0.9375000), wk =   0.0468750
        k(   47) = (   0.4375000   0.0625000   0.8125000), wk =   0.0468750
        k(   48) = (  -0.1875000  -1.0625000   0.1875000), wk =   0.0234375
        k(   49) = (  -0.3125000  -0.9375000   0.0625000), wk =   0.0468750
        k(   50) = (  -0.1875000  -0.8125000   0.1875000), wk =   0.0234375
        k(   51) = (  -0.3125000   0.3125000   0.3125000), wk =   0.0078125
        k(   52) = (  -0.4375000   0.4375000   0.1875000), wk =   0.0234375
        k(   53) = (   0.4375000  -0.4375000   1.0625000), wk =   0.0234375
        k(   54) = (   0.3125000  -0.3125000   0.9375000), wk =   0.0234375
        k(   55) = (  -0.3125000   0.5625000   0.3125000), wk =   0.0234375
        k(   56) = (   0.5625000  -0.3125000   1.1875000), wk =   0.0468750
        k(   57) = (   0.4375000  -0.1875000   1.0625000), wk =   0.0468750
        k(   58) = (  -0.3125000  -1.1875000   0.3125000), wk =   0.0234375
        k(   59) = (  -0.4375000   0.4375000   0.4375000), wk =   0.0078125
        k(   60) = (   0.4375000  -0.4375000   1.3125000), wk =   0.0234375

     Dense  grid:    64767 G-vectors     FFT dimensions: (  60,  60,  60)

     Smooth grid:    22995 G-vectors     FFT dimensions: (  40,  40,  40)

     Estimated max dynamical RAM per process >      21.20MB

     Estimated total allocated dynamical RAM >      84.78MB

     Initial potential from superposition of free atoms

     starting charge   25.99991, renormalised to   28.00000
     Starting wfc are   18 randomized atomic wfcs

     total cpu time spent up to now is        1.3 secs

     per-process dynamical memory:    25.4 Mb

     Self-consistent Calculation

     iteration #  1     ecut=    50.00 Ry     beta=0.70
     Davidson diagonalization with overlap
     ethr =  1.00E-02,  avg # of iterations =  2.8

     total cpu time spent up to now is        3.7 secs

     total energy              =    -317.48815597 Ry
     Harris-Foulkes estimate   =    -319.54253476 Ry
     estimated scf accuracy    <       2.50330554 Ry

     iteration #  2     ecut=    50.00 Ry     beta=0.70
     Davidson diagonalization with overlap
     ethr =  8.94E-03,  avg # of iterations =  3.0

     total cpu time spent up to now is        6.3 secs

     total energy              =    -318.39345522 Ry
     Harris-Foulkes estimate   =    -318.71097630 Ry
     estimated scf accuracy    <       0.47331263 Ry

     iteration #  3     ecut=    50.00 Ry     beta=0.70
     Davidson diagonalization with overlap
     ethr =  1.69E-03,  avg # of iterations =  2.0

     total cpu time spent up to now is        8.6 secs

     total energy              =    -318.48829468 Ry
     Harris-Foulkes estimate   =    -318.48987122 Ry
     estimated scf accuracy    <       0.00288829 Ry

     iteration #  4     ecut=    50.00 Ry     beta=0.70
     Davidson diagonalization with overlap
     ethr =  1.03E-05,  avg # of iterations =  3.0

     total cpu time spent up to now is       11.1 secs

     total energy              =    -318.48918799 Ry
     Harris-Foulkes estimate   =    -318.48930584 Ry
     estimated scf accuracy    <       0.00017502 Ry

     iteration #  5     ecut=    50.00 Ry     beta=0.70
     Davidson diagonalization with overlap
     ethr =  6.25E-07,  avg # of iterations =  3.0

     total cpu time spent up to now is       13.6 secs

     total energy              =    -318.48924119 Ry
     Harris-Foulkes estimate   =    -318.48924182 Ry
     estimated scf accuracy    <       0.00000138 Ry

     iteration #  6     ecut=    50.00 Ry     beta=0.70
     Davidson diagonalization with overlap
     ethr =  4.93E-09,  avg # of iterations =  4.0

     total cpu time spent up to now is       16.3 secs

     total energy              =    -318.48924194 Ry
     Harris-Foulkes estimate   =    -318.48924200 Ry
     estimated scf accuracy    <       0.00000009 Ry

     iteration #  7     ecut=    50.00 Ry     beta=0.70
     Davidson diagonalization with overlap
     ethr =  3.22E-10,  avg # of iterations =  3.1

     total cpu time spent up to now is       18.8 secs

     End of self-consistent calculation

          k =-0.0625 0.0625 0.0625 (  2828 PWs)   bands (ev):

   -14.3062 -14.3062 -14.3023 -14.2470 -14.2470 -13.9853 -13.9853 -13.9766
   -13.9620 -13.9620  -2.9756   5.8972   7.3222   7.3222

          k =-0.1875 0.1875-0.0625 (  2849 PWs)   bands (ev):

   -14.3193 -14.3141 -14.2995 -14.2351 -14.2274 -14.0106 -14.0006 -13.9735
   -13.9571 -13.9429  -2.7843   4.6468   6.6117   7.1802

          k =-0.3125 0.3125-0.1875 (  2873 PWs)   bands (ev):

   -14.3320 -14.3286 -14.2876 -14.2160 -14.2056 -14.0306 -14.0177 -13.9905
   -13.9390 -13.9304  -2.3288   3.0052   6.1081   6.7407

          k =-0.4375 0.4375-0.3125 (  2877 PWs)   bands (ev):

   -14.3380 -14.3376 -14.2761 -14.2023 -14.1942 -14.0382 -14.0282 -14.0072
   -13.9272 -13.9252  -1.7248   1.6496   5.8595   6.3683

          k = 0.4375-0.4375 0.5625 (  2881 PWs)   bands (ev):

   -14.3414 -14.3373 -14.2734 -14.1954 -14.1946 -14.0369 -14.0342 -14.0107
   -13.9270 -13.9222  -1.4551   1.1859   5.8622   6.1878

          k = 0.3125-0.3125 0.4375 (  2874 PWs)   bands (ev):

   -14.3387 -14.3326 -14.2810 -14.2051 -14.1961 -14.0408 -14.0237 -13.9997
   -13.9328 -13.9245  -1.9250   2.0408   6.0998   6.2380

          k = 0.1875-0.1875 0.3125 (  2864 PWs)   bands (ev):

   -14.3284 -14.3231 -14.2936 -14.2224 -14.2107 -14.0308 -14.0071 -13.9840
   -13.9446 -13.9343  -2.5059   3.5435   6.5166   6.5281

          k = 0.0625-0.0625 0.1875 (  2837 PWs)   bands (ev):

   -14.3129 -14.3094 -14.3035 -14.2424 -14.2331 -14.0088 -13.9851 -13.9727
   -13.9619 -13.9497  -2.8793   5.1927   6.9598   6.9989

          k =-0.0625 0.3125 0.0625 (  2859 PWs)   bands (ev):

   -14.3205 -14.3165 -14.3059 -14.2326 -14.2111 -14.0386 -13.9907 -13.9650
   -13.9569 -13.9426  -2.6874   4.3567   6.4735   6.4861

          k =-0.1875 0.4375-0.0625 (  2867 PWs)   bands (ev):

   -14.3345 -14.3289 -14.2922 -14.2153 -14.1853 -14.0658 -14.0094 -13.9759
   -13.9410 -13.9287  -2.3147   3.2037   5.6710   6.2444

          k =-0.3125 0.5625-0.1875 (  2876 PWs)   bands (ev):

   -14.3497 -14.3384 -14.2683 -14.1962 -14.1706 -14.0772 -14.0300 -14.0038
   -13.9264 -13.9129  -1.7325   1.9092   5.1552   5.9312

          k = 0.5625-0.3125 0.6875 (  2880 PWs)   bands (ev):

   -14.3569 -14.3431 -14.2517 -14.1818 -14.1739 -14.0668 -14.0490 -14.0238
   -13.9190 -13.9056  -1.2553   1.1136   4.8887   5.8611

          k = 0.4375-0.1875 0.5625 (  2872 PWs)   bands (ev):

   -14.3526 -14.3432 -14.2548 -14.1942 -14.1725 -14.0657 -14.0346 -14.0251
   -13.9186 -13.9106  -1.5361   1.5597   4.8879   6.0771

          k = 0.3125-0.0625 0.4375 (  2868 PWs)   bands (ev):

   -14.3393 -14.3369 -14.2759 -14.2112 -14.1852 -14.0580 -14.0197 -13.9962
   -13.9310 -13.9222  -2.1430   2.7520   5.2471   6.4814

          k = 0.1875 0.0625 0.3125 (  2859 PWs)   bands (ev):

   -14.3267 -14.3208 -14.2965 -14.2273 -14.2100 -14.0347 -14.0026 -13.9740
   -13.9515 -13.9351  -2.5954   3.9428   6.1328   6.7870

          k =-0.0625 0.5625 0.0625 (  2870 PWs)   bands (ev):

   -14.3366 -14.3334 -14.2973 -14.1990 -14.1521 -14.1066 -14.0223 -13.9636
   -13.9343 -13.9296  -2.0246   2.6568   5.5492   5.6407

          k =-0.1875 0.6875-0.0625 (  2866 PWs)   bands (ev):

   -14.3499 -14.3440 -14.2710 -14.1762 -14.1338 -14.1252 -14.0459 -13.9922
   -13.9193 -13.9126  -1.4930   1.7164   4.9634   5.3695

          k = 0.6875-0.1875 0.8125 (  2879 PWs)   bands (ev):

   -14.3653 -14.3492 -14.2384 -14.1549 -14.1369 -14.1195 -14.0714 -14.0270
   -13.9117 -13.8954  -0.8971   0.8852   4.3656   5.3376

          k = 0.5625-0.0625 0.6875 (  2879 PWs)   bands (ev):

   -14.3680 -14.3505 -14.2289 -14.1605 -14.1405 -14.1015 -14.0799 -14.0373
   -13.9095 -13.8932  -0.9623   0.9683   4.1431   5.6007

          k = 0.4375 0.0625 0.5625 (  2873 PWs)   bands (ev):

   -14.3558 -14.3463 -14.2475 -14.1933 -14.1617 -14.0777 -14.0364 -14.0311
   -13.9142 -13.9079  -1.5668   1.7457   4.5393   6.0522

          k = 0.3125 0.1875 0.4375 (  2874 PWs)   bands (ev):

   -14.3397 -14.3334 -14.2794 -14.2090 -14.1906 -14.0507 -14.0202 -13.9969
   -13.9333 -13.9228  -2.0685   2.4499   5.6373   6.3846

          k =-0.0625 0.8125 0.0625 (  2872 PWs)   bands (ev):

   -14.3496 -14.3468 -14.2643 -14.1774 -14.1508 -14.0859 -14.0697 -13.9980
   -13.9143 -13.9118  -1.0141   1.0419   4.9979   5.1292

          k = 0.8125-0.0625 0.9375 (  2880 PWs)   bands (ev):

   -14.3585 -14.3526 -14.2298 -14.1968 -14.1249 -14.0972 -14.0659 -14.0337
   -13.9075 -13.9015  -0.3728   0.2998   4.6408   4.9740

          k = 0.6875 0.0625 0.8125 (  2870 PWs)   bands (ev):

   -14.3686 -14.3520 -14.2248 -14.1523 -14.1311 -14.1067 -14.0945 -14.0385
   -13.9077 -13.8911  -0.5049   0.4665   4.1794   5.2214

          k = 0.5625 0.1875 0.6875 (  2881 PWs)   bands (ev):

   -14.3642 -14.3476 -14.2379 -14.1693 -14.1569 -14.0861 -14.0658 -14.0321
   -13.9132 -13.8975  -1.0661   1.0017   4.4209   5.6876

          k = 0.4375 0.3125 0.5625 (  2878 PWs)   bands (ev):

   -14.3473 -14.3391 -14.2656 -14.1950 -14.1860 -14.0493 -14.0344 -14.0158
   -13.9243 -13.9161  -1.4900   1.3315   5.4160   6.1195

          k =-0.0625-0.9375 0.0625 (  2875 PWs)   bands (ev):

   -14.3525 -14.3500 -14.2398 -14.2098 -14.1239 -14.0966 -14.0539 -14.0237
   -13.9100 -13.9074  -0.3931   0.2973   4.8854   5.0241

          k =-0.1875-0.8125-0.0625 (  2880 PWs)   bands (ev):

   -14.3556 -14.3496 -14.2525 -14.1669 -14.1515 -14.0950 -14.0707 -14.0109
   -13.9116 -13.9055  -0.9644   0.9913   4.7497   5.1065

          k =-0.3125-0.6875-0.1875 (  2876 PWs)   bands (ev):

   -14.3587 -14.3441 -14.2542 -14.1774 -14.1486 -14.1044 -14.0484 -14.0137
   -13.9185 -13.9030  -1.3336   1.3866   4.7095   5.5733

          k =-0.0625-0.6875 0.0625 (  2873 PWs)   bands (ev):

   -14.3439 -14.3412 -14.2838 -14.1762 -14.1422 -14.1191 -14.0449 -13.9773
   -13.9231 -13.9198  -1.5604   1.8325   5.2208   5.3366

          k =-0.1875-0.5625-0.0625 (  2875 PWs)   bands (ev):

   -14.3425 -14.3369 -14.2843 -14.1980 -14.1568 -14.0992 -14.0249 -13.9809
   -13.9296 -13.9214  -1.9455   2.4577   5.2743   5.7554

          k =-0.0625-0.4375 0.0625 (  2866 PWs)   bands (ev):

   -14.3282 -14.3250 -14.3045 -14.2179 -14.1831 -14.0716 -14.0038 -13.9595
   -13.9464 -13.9377  -2.4016   3.5027   5.9733   6.0307

          k =-0.1875 0.1875 0.1875 (  2869 PWs)   bands (ev):

   -14.3205 -14.3205 -14.2970 -14.2266 -14.2266 -14.0083 -14.0083 -13.9849
   -13.9445 -13.9445  -2.6911   4.1685   6.9080   6.9080

          k =-0.3125 0.3125 0.0625 (  2861 PWs)   bands (ev):

   -14.3327 -14.3285 -14.2859 -14.2199 -14.2025 -14.0356 -14.0176 -13.9842
   -13.9424 -13.9281  -2.4129   3.3678   5.6778   6.8778

          k =-0.4375 0.4375-0.0625 (  2874 PWs)   bands (ev):

   -14.3470 -14.3425 -14.2604 -14.2053 -14.1773 -14.0584 -14.0297 -14.0165
   -13.9194 -13.9179  -1.8912   2.2518   4.8514   6.4421

          k = 0.4375-0.4375 0.8125 (  2874 PWs)   bands (ev):

   -14.3588 -14.3452 -14.2454 -14.1844 -14.1681 -14.0629 -14.0559 -14.0306
   -13.9157 -13.9039  -1.3036   1.2473   4.6252   6.0039

          k = 0.3125-0.3125 0.6875 (  2877 PWs)   bands (ev):

   -14.3587 -14.3419 -14.2545 -14.1784 -14.1644 -14.0846 -14.0485 -14.0163
   -13.9209 -13.9032  -1.2890   1.2238   4.8134   5.7572

          k = 0.1875-0.1875 0.5625 (  2874 PWs)   bands (ev):

   -14.3471 -14.3347 -14.2796 -14.1970 -14.1633 -14.0904 -14.0269 -13.9878
   -13.9314 -13.9160  -1.8728   2.2404   5.3133   5.7656

          k =-0.1875 0.4375 0.1875 (  2872 PWs)   bands (ev):

   -14.3377 -14.3281 -14.2886 -14.2128 -14.1888 -14.0594 -14.0131 -13.9830
   -13.9401 -13.9254  -2.2316   2.8926   5.8957   6.1178

          k =-0.3125 0.5625 0.0625 (  2877 PWs)   bands (ev):

   -14.3484 -14.3432 -14.2655 -14.1968 -14.1619 -14.0877 -14.0289 -14.0058
   -13.9205 -13.9153  -1.7906   2.1297   4.8914   5.9342

          k = 0.5625-0.3125 0.9375 (  2874 PWs)   bands (ev):

   -14.3627 -14.3512 -14.2344 -14.1747 -14.1410 -14.1052 -14.0573 -14.0351
   -13.9092 -13.8992  -1.1812   1.2467   4.3381   5.5279

          k = 0.4375-0.1875 0.8125 (  2876 PWs)   bands (ev):

   -14.3666 -14.3523 -14.2275 -14.1598 -14.1369 -14.1127 -14.0726 -14.0384
   -13.9082 -13.8942  -0.8666   0.8376   4.3012   5.3043

          k = 0.3125-0.0625 0.6875 (  2873 PWs)   bands (ev):

   -14.3561 -14.3492 -14.2518 -14.1767 -14.1359 -14.1183 -14.0484 -14.0155
   -13.9126 -13.9061  -1.3633   1.5085   4.6326   5.4299

          k =-0.1875 0.6875 0.1875 (  2879 PWs)   bands (ev):

   -14.3555 -14.3417 -14.2658 -14.1766 -14.1375 -14.1203 -14.0468 -13.9990
   -13.9218 -13.9068  -1.4370   1.5902   4.8439   5.4861

          k = 0.6875-0.1875 1.0625 (  2881 PWs)   bands (ev):

   -14.3614 -14.3546 -14.2338 -14.1535 -14.1497 -14.1076 -14.0729 -14.0307
   -13.9061 -13.8993  -0.8722   0.8928   4.4788   5.0431

          k = 0.5625-0.0625 0.9375 (  2874 PWs)   bands (ev):

   -14.3672 -14.3613 -14.1984 -14.1611 -14.1304 -14.1035 -14.0932 -14.0615
   -13.8984 -13.8924  -0.3206   0.3032   4.2973   4.7095

          k = 0.4375 0.0625 0.8125 (  2877 PWs)   bands (ev):

   -14.3663 -14.3569 -14.2176 -14.1535 -14.1346 -14.1167 -14.0795 -14.0463
   -13.9031 -13.8942  -0.7515   0.7577   4.2618   5.0447

          k =-0.1875-1.0625 0.1875 (  2877 PWs)   bands (ev):

   -14.3647 -14.3503 -14.2311 -14.1771 -14.1267 -14.0962 -14.0846 -14.0326
   -13.9098 -13.8951  -0.4184   0.3585   4.3528   5.1956

          k =-0.3125-0.9375 0.0625 (  2879 PWs)   bands (ev):

   -14.3641 -14.3577 -14.2132 -14.1773 -14.1271 -14.0990 -14.0826 -14.0492
   -13.9022 -13.8957  -0.3429   0.3023   4.4202   4.8232

          k =-0.1875-0.8125 0.1875 (  2876 PWs)   bands (ev):

   -14.3614 -14.3471 -14.2482 -14.1537 -14.1523 -14.1064 -14.0707 -14.0159
   -13.9140 -13.8992  -0.9375   0.9488   4.5185   5.2936

          k =-0.3125 0.3125 0.3125 (  2887 PWs)   bands (ev):

   -14.3315 -14.3315 -14.2876 -14.2081 -14.2081 -14.0247 -14.0247 -13.9962
   -13.9331 -13.9331  -2.1638   2.5213   6.5086   6.5086

          k =-0.4375 0.4375 0.1875 (  2878 PWs)   bands (ev):

   -14.3433 -14.3405 -14.2672 -14.2044 -14.1849 -14.0496 -14.0274 -14.0138
   -13.9228 -13.9209  -1.8325   1.9907   5.2574   6.4190

          k = 0.4375-0.4375 1.0625 (  2873 PWs)   bands (ev):

   -14.3632 -14.3476 -14.2369 -14.1802 -14.1546 -14.0769 -14.0655 -14.0342
   -13.9124 -13.8992  -1.2853   1.3514   4.2790   5.9585

          k = 0.3125-0.3125 0.9375 (  2876 PWs)   bands (ev):

   -14.3700 -14.3497 -14.2295 -14.1369 -14.1358 -14.1210 -14.0902 -14.0352
   -13.9101 -13.8902  -0.7278   0.7011   4.0841   5.5204

          k =-0.3125 0.5625 0.3125 (  2876 PWs)   bands (ev):

   -14.3486 -14.3365 -14.2692 -14.1953 -14.1812 -14.0621 -14.0319 -14.0060
   -13.9284 -13.9139  -1.6256   1.6044   5.4292   5.9764

          k = 0.5625-0.3125 1.1875 (  2880 PWs)   bands (ev):

   -14.3610 -14.3476 -14.2420 -14.1778 -14.1558 -14.0892 -14.0531 -14.0298
   -13.9139 -13.9009  -1.2008   1.1717   4.5606   5.6441

          k = 0.4375-0.1875 1.0625 (  2879 PWs)   bands (ev):

   -14.3693 -14.3557 -14.2160 -14.1448 -14.1316 -14.1190 -14.0904 -14.0468
   -13.9044 -13.8909  -0.6219   0.6071   4.1512   5.1271

          k =-0.3125-1.1875 0.3125 (  2880 PWs)   bands (ev):

   -14.3662 -14.3471 -14.2397 -14.1571 -14.1483 -14.1056 -14.0698 -14.0276
   -13.9138 -13.8948  -0.9595   0.9082   4.3422   5.6011

          k =-0.4375 0.4375 0.4375 (  2872 PWs)   bands (ev):

   -14.3357 -14.3357 -14.2803 -14.1989 -14.1989 -14.0314 -14.0314 -14.0044
   -13.9279 -13.9279  -1.5886   1.3587   6.2883   6.2883

          k = 0.4375-0.4375 1.3125 (  2874 PWs)   bands (ev):

   -14.3506 -14.3408 -14.2596 -14.1898 -14.1839 -14.0460 -14.0449 -14.0221
   -13.9213 -13.9125  -1.3560   1.1584   5.1989   6.0859

     highest occupied level (ev):     7.3222

!    total energy              =    -318.48924197 Ry
     Harris-Foulkes estimate   =    -318.48924197 Ry
     estimated scf accuracy    <          2.1E-09 Ry

     The total energy is the sum of the following terms:

     one-electron contribution =    -159.23553657 Ry
     hartree contribution      =      96.48333296 Ry
     xc contribution           =     -85.99227684 Ry
     ewald contribution        =    -169.74476152 Ry

     convergence has been achieved in   7 iterations


     Computing stress (Cartesian axis) and pressure

          total   stress  (Ry/bohr**3)                   (kbar)     P=   -6.24
  -0.00004241  -0.00000000   0.00000000         -6.24     -0.00      0.00
   0.00000000  -0.00004241  -0.00000000          0.00     -6.24     -0.00
   0.00000000  -0.00000000  -0.00004241          0.00     -0.00     -6.24


     Writing output data file sn.a.12.44.8.save

     init_run     :      1.20s CPU      1.23s WALL (       1 calls)
     electrons    :     17.04s CPU     17.56s WALL (       1 calls)
     stress       :      0.95s CPU      0.97s WALL (       1 calls)

     Called by init_run:
     wfcinit      :      0.74s CPU      0.75s WALL (       1 calls)
     potinit      :      0.06s CPU      0.06s WALL (       1 calls)

     Called by electrons:
     c_bands      :     13.54s CPU     13.85s WALL (       7 calls)
     sum_band     :      2.69s CPU      2.83s WALL (       7 calls)
     v_of_rho     :      0.35s CPU      0.36s WALL (       8 calls)
     newd         :      0.50s CPU      0.56s WALL (       8 calls)
     mix_rho      :      0.03s CPU      0.03s WALL (       7 calls)

     Called by c_bands:
     init_us_2    :      0.38s CPU      0.39s WALL (     960 calls)
     cegterg      :     12.85s CPU     13.15s WALL (     420 calls)

     Called by sum_band:
     sum_band:bec :      0.00s CPU      0.00s WALL (     420 calls)
     addusdens    :      0.53s CPU      0.61s WALL (       7 calls)

     Called by *egterg:
     h_psi        :     11.08s CPU     11.37s WALL (    1734 calls)
     s_psi        :      0.20s CPU      0.20s WALL (    1734 calls)
     g_psi        :      0.07s CPU      0.08s WALL (    1254 calls)
     cdiaghg      :      0.74s CPU      0.74s WALL (    1674 calls)

     Called by h_psi:
     h_psi:pot    :     10.99s CPU     11.28s WALL (    1734 calls)
     h_psi:calbec :      0.47s CPU      0.48s WALL (    1734 calls)
     vloc_psi     :     10.27s CPU     10.54s WALL (    1734 calls)
     add_vuspsi   :      0.25s CPU      0.26s WALL (    1734 calls)

     General routines
     calbec       :      0.59s CPU      0.60s WALL (    2214 calls)
     fft          :      0.17s CPU      0.18s WALL (     138 calls)
     ffts         :      0.01s CPU      0.01s WALL (      15 calls)
     fftw         :      9.73s CPU     10.00s WALL (   45624 calls)
     interpolate  :      0.03s CPU      0.03s WALL (      15 calls)
     davcio       :      0.00s CPU      0.01s WALL (      60 calls)

     Parallel routines
     fft_scatter  :      1.65s CPU      1.62s WALL (   45777 calls)

     PWSCF        :    19.33s CPU        19.92s WALL


   This run was terminated on:   1:34:45  23Nov2017            

=------------------------------------------------------------------------------=
   JOB DONE.
=------------------------------------------------------------------------------=
