
     Program PWSCF v.6.1 (svn rev. 13369) starts on 23Nov2017 at  1:35:20 

     This program is part of the open-source Quantum ESPRESSO suite
     for quantum simulation of materials; please cite
         "P. Giannozzi et al., J. Phys.:Condens. Matter 21 395502 (2009);
          URL http://www.quantum-espresso.org", 
     in publications or presentations arising from this work. More details at
     http://www.quantum-espresso.org/quote

     Parallel version (MPI), running on     4 processors
     R & G space division:  proc/nbgrp/npool/nimage =       4
     Waiting for input...
     Reading input from standard input
     Message from routine read_cards :
     DEPRECATED: no units specified in ATOMIC_POSITIONS card
     Message from routine read_cards :
     ATOMIC_POSITIONS: units set to alat

     Current dimensions of program PWSCF are:
     Max number of different atomic species (ntypx) = 10
     Max number of k-points (npk) =  40000
     Max angular momentum in pseudopotentials (lmaxx) =  3

     Subspace diagonalization in iterative solution of the eigenvalue problem:
     a serial algorithm will be used


     Parallelization info
     --------------------
     sticks:   dense  smooth     PW     G-vecs:    dense   smooth      PW
     Min         526     267     78                16188     5748     958
     Max         527     268     79                16193     5750     963
     Sum        2107    1069    313                64767    22995    3839



     bravais-lattice index     =            2
     lattice parameter (alat)  =      12.4400  a.u.
     unit-cell volume          =     481.2837 (a.u.)^3
     number of atoms/cell      =            2
     number of atomic types    =            1
     number of electrons       =        28.00
     number of Kohn-Sham states=           14
     kinetic-energy cutoff     =      50.0000  Ry
     charge density cutoff     =     400.0000  Ry
     convergence threshold     =      1.0E-08
     mixing beta               =       0.7000
     number of iterations used =            8  plain     mixing
     Exchange-correlation      =  SLA  PW   PBX  PBC ( 1  4  3  4 0 0)

     celldm(1)=  12.440000  celldm(2)=   0.000000  celldm(3)=   0.000000
     celldm(4)=   0.000000  celldm(5)=   0.000000  celldm(6)=   0.000000

     crystal axes: (cart. coord. in units of alat)
               a(1) = (  -0.500000   0.000000   0.500000 )  
               a(2) = (   0.000000   0.500000   0.500000 )  
               a(3) = (  -0.500000   0.500000   0.000000 )  

     reciprocal axes: (cart. coord. in units 2 pi/alat)
               b(1) = ( -1.000000 -1.000000  1.000000 )  
               b(2) = (  1.000000  1.000000  1.000000 )  
               b(3) = ( -1.000000  1.000000 -1.000000 )  


     PseudoPot. # 1 for Sn read from file:
     /home/s1333534/quantum_espresso/qe-6.1/pseudo/sn_pbe_v1.4.uspp.F.UPF
     MD5 check sum: 469debedee59599fedebd795477fea03
     Pseudo is Ultrasoft + core correction, Zval = 14.0
     Generated by new atomic code, or converted to UPF format
     Using radial grid of  891 points,  6 beta functions with: 
                l(1) =   0
                l(2) =   0
                l(3) =   1
                l(4) =   1
                l(5) =   2
                l(6) =   2
     Q(r) pseudized with  8 coefficients,  rinner =    1.350   1.350   1.350
                                                       1.350   1.350

     atomic species   valence    mass     pseudopotential
        Sn            14.00   118.71000     Sn( 1.00)

     48 Sym. Ops., with inversion, found (24 have fractional translation)



   Cartesian axes

     site n.     atom                  positions (alat units)
         1           Sn  tau(   1) = (   0.0000000   0.0000000   0.0000000  )
         2           Sn  tau(   2) = (   0.2500000   0.2500000   0.2500000  )

     number of k points=   182

     Number of k-points >= 100: set verbosity='high' to print them.

     Dense  grid:    64767 G-vectors     FFT dimensions: (  60,  60,  60)

     Smooth grid:    22995 G-vectors     FFT dimensions: (  40,  40,  40)

     Estimated max dynamical RAM per process >      39.91MB

     Estimated total allocated dynamical RAM >     159.63MB

     Initial potential from superposition of free atoms

     starting charge   25.99991, renormalised to   28.00000
     Starting wfc are   18 randomized atomic wfcs

     total cpu time spent up to now is        2.9 secs

     per-process dynamical memory:    45.4 Mb

     Self-consistent Calculation

     iteration #  1     ecut=    50.00 Ry     beta=0.70
     Davidson diagonalization with overlap
     ethr =  1.00E-02,  avg # of iterations =  2.7

     total cpu time spent up to now is        9.8 secs

     total energy              =    -317.48855601 Ry
     Harris-Foulkes estimate   =    -319.54250931 Ry
     estimated scf accuracy    <       2.50279051 Ry

     iteration #  2     ecut=    50.00 Ry     beta=0.70
     Davidson diagonalization with overlap
     ethr =  8.94E-03,  avg # of iterations =  3.0

     total cpu time spent up to now is       17.3 secs

     total energy              =    -318.39354102 Ry
     Harris-Foulkes estimate   =    -318.71098752 Ry
     estimated scf accuracy    <       0.47314641 Ry

     iteration #  3     ecut=    50.00 Ry     beta=0.70
     Davidson diagonalization with overlap
     ethr =  1.69E-03,  avg # of iterations =  2.0

     total cpu time spent up to now is       23.8 secs

     total energy              =    -318.48831941 Ry
     Harris-Foulkes estimate   =    -318.48989037 Ry
     estimated scf accuracy    <       0.00287949 Ry

     iteration #  4     ecut=    50.00 Ry     beta=0.70
     Davidson diagonalization with overlap
     ethr =  1.03E-05,  avg # of iterations =  3.0

     total cpu time spent up to now is       30.9 secs

     total energy              =    -318.48921137 Ry
     Harris-Foulkes estimate   =    -318.48932998 Ry
     estimated scf accuracy    <       0.00017595 Ry

     iteration #  5     ecut=    50.00 Ry     beta=0.70
     Davidson diagonalization with overlap
     ethr =  6.28E-07,  avg # of iterations =  3.0

     total cpu time spent up to now is       38.2 secs

     total energy              =    -318.48926496 Ry
     Harris-Foulkes estimate   =    -318.48926567 Ry
     estimated scf accuracy    <       0.00000148 Ry

     iteration #  6     ecut=    50.00 Ry     beta=0.70
     Davidson diagonalization with overlap
     ethr =  5.29E-09,  avg # of iterations =  4.0

     total cpu time spent up to now is       45.9 secs

     total energy              =    -318.48926575 Ry
     Harris-Foulkes estimate   =    -318.48926580 Ry
     estimated scf accuracy    <       0.00000008 Ry

     iteration #  7     ecut=    50.00 Ry     beta=0.70
     Davidson diagonalization with overlap
     ethr =  2.90E-10,  avg # of iterations =  3.1

     total cpu time spent up to now is       53.3 secs

     End of self-consistent calculation

     Number of k-points >= 100: set verbosity='high' to print the bands.

     highest occupied level (ev):     7.3639

!    total energy              =    -318.48926578 Ry
     Harris-Foulkes estimate   =    -318.48926578 Ry
     estimated scf accuracy    <          2.4E-09 Ry

     The total energy is the sum of the following terms:

     one-electron contribution =    -159.23527530 Ry
     hartree contribution      =      96.48301282 Ry
     xc contribution           =     -85.99224178 Ry
     ewald contribution        =    -169.74476152 Ry

     convergence has been achieved in   7 iterations


     Computing stress (Cartesian axis) and pressure

          total   stress  (Ry/bohr**3)                   (kbar)     P=   -6.25
  -0.00004249   0.00000000  -0.00000000         -6.25      0.00     -0.00
   0.00000000  -0.00004249   0.00000000          0.00     -6.25      0.00
  -0.00000000   0.00000000  -0.00004249         -0.00      0.00     -6.25


     Writing output data file sn.a.12.44.12.save

     init_run     :      2.71s CPU      2.79s WALL (       1 calls)
     electrons    :     49.05s CPU     50.46s WALL (       1 calls)
     stress       :      1.76s CPU      1.79s WALL (       1 calls)

     Called by init_run:
     wfcinit      :      2.24s CPU      2.31s WALL (       1 calls)
     potinit      :      0.06s CPU      0.06s WALL (       1 calls)

     Called by electrons:
     c_bands      :     41.51s CPU     42.59s WALL (       7 calls)
     sum_band     :      6.73s CPU      6.99s WALL (       7 calls)
     v_of_rho     :      0.37s CPU      0.38s WALL (       8 calls)
     newd         :      0.49s CPU      0.55s WALL (       8 calls)
     mix_rho      :      0.03s CPU      0.03s WALL (       7 calls)

     Called by c_bands:
     init_us_2    :      1.13s CPU      1.15s WALL (    2912 calls)
     cegterg      :     39.41s CPU     40.47s WALL (    1274 calls)

     Called by sum_band:
     sum_band:bec :      0.01s CPU      0.01s WALL (    1274 calls)
     addusdens    :      0.51s CPU      0.61s WALL (       7 calls)

     Called by *egterg:
     h_psi        :     33.99s CPU     35.02s WALL (    5233 calls)
     s_psi        :      0.62s CPU      0.63s WALL (    5233 calls)
     g_psi        :      0.23s CPU      0.23s WALL (    3777 calls)
     cdiaghg      :      2.21s CPU      2.21s WALL (    5051 calls)

     Called by h_psi:
     h_psi:pot    :     33.68s CPU     34.70s WALL (    5233 calls)
     h_psi:calbec :      1.46s CPU      1.47s WALL (    5233 calls)
     vloc_psi     :     31.43s CPU     32.41s WALL (    5233 calls)
     add_vuspsi   :      0.79s CPU      0.80s WALL (    5233 calls)

     General routines
     calbec       :      1.86s CPU      1.87s WALL (    6689 calls)
     fft          :      0.18s CPU      0.19s WALL (     138 calls)
     ffts         :      0.01s CPU      0.01s WALL (      15 calls)
     fftw         :     29.55s CPU     30.62s WALL (  138420 calls)
     interpolate  :      0.03s CPU      0.03s WALL (      15 calls)
     davcio       :      0.00s CPU      0.02s WALL (     182 calls)

     Parallel routines
     fft_scatter  :      5.46s CPU      5.26s WALL (  138573 calls)

     PWSCF        :    53.77s CPU        55.34s WALL


   This run was terminated on:   1:36:15  23Nov2017            

=------------------------------------------------------------------------------=
   JOB DONE.
=------------------------------------------------------------------------------=
