
     Program PWSCF v.6.1 (svn rev. 13369) starts on 23Nov2017 at  1:39:48 

     This program is part of the open-source Quantum ESPRESSO suite
     for quantum simulation of materials; please cite
         "P. Giannozzi et al., J. Phys.:Condens. Matter 21 395502 (2009);
          URL http://www.quantum-espresso.org", 
     in publications or presentations arising from this work. More details at
     http://www.quantum-espresso.org/quote

     Parallel version (MPI), running on     4 processors
     R & G space division:  proc/nbgrp/npool/nimage =       4
     Waiting for input...
     Reading input from standard input
     Message from routine read_cards :
     DEPRECATED: no units specified in ATOMIC_POSITIONS card
     Message from routine read_cards :
     ATOMIC_POSITIONS: units set to alat

     Current dimensions of program PWSCF are:
     Max number of different atomic species (ntypx) = 10
     Max number of k-points (npk) =  40000
     Max angular momentum in pseudopotentials (lmaxx) =  3

     Subspace diagonalization in iterative solution of the eigenvalue problem:
     a serial algorithm will be used


     Parallelization info
     --------------------
     sticks:   dense  smooth     PW     G-vecs:    dense   smooth      PW
     Min         526     267     78                16188     5748     958
     Max         527     268     79                16193     5750     963
     Sum        2107    1069    313                64767    22995    3839



     bravais-lattice index     =            2
     lattice parameter (alat)  =      12.4400  a.u.
     unit-cell volume          =     481.2837 (a.u.)^3
     number of atoms/cell      =            2
     number of atomic types    =            1
     number of electrons       =        28.00
     number of Kohn-Sham states=           14
     kinetic-energy cutoff     =      50.0000  Ry
     charge density cutoff     =     400.0000  Ry
     convergence threshold     =      1.0E-08
     mixing beta               =       0.7000
     number of iterations used =            8  plain     mixing
     Exchange-correlation      =  SLA  PW   PBX  PBC ( 1  4  3  4 0 0)

     celldm(1)=  12.440000  celldm(2)=   0.000000  celldm(3)=   0.000000
     celldm(4)=   0.000000  celldm(5)=   0.000000  celldm(6)=   0.000000

     crystal axes: (cart. coord. in units of alat)
               a(1) = (  -0.500000   0.000000   0.500000 )  
               a(2) = (   0.000000   0.500000   0.500000 )  
               a(3) = (  -0.500000   0.500000   0.000000 )  

     reciprocal axes: (cart. coord. in units 2 pi/alat)
               b(1) = ( -1.000000 -1.000000  1.000000 )  
               b(2) = (  1.000000  1.000000  1.000000 )  
               b(3) = ( -1.000000  1.000000 -1.000000 )  


     PseudoPot. # 1 for Sn read from file:
     /home/s1333534/quantum_espresso/qe-6.1/pseudo/sn_pbe_v1.4.uspp.F.UPF
     MD5 check sum: 469debedee59599fedebd795477fea03
     Pseudo is Ultrasoft + core correction, Zval = 14.0
     Generated by new atomic code, or converted to UPF format
     Using radial grid of  891 points,  6 beta functions with: 
                l(1) =   0
                l(2) =   0
                l(3) =   1
                l(4) =   1
                l(5) =   2
                l(6) =   2
     Q(r) pseudized with  8 coefficients,  rinner =    1.350   1.350   1.350
                                                       1.350   1.350

     atomic species   valence    mass     pseudopotential
        Sn            14.00   118.71000     Sn( 1.00)

     48 Sym. Ops., with inversion, found (24 have fractional translation)



   Cartesian axes

     site n.     atom                  positions (alat units)
         1           Sn  tau(   1) = (   0.0000000   0.0000000   0.0000000  )
         2           Sn  tau(   2) = (   0.2500000   0.2500000   0.2500000  )

     number of k points=   570

     Number of k-points >= 100: set verbosity='high' to print them.

     Dense  grid:    64767 G-vectors     FFT dimensions: (  60,  60,  60)

     Smooth grid:    22995 G-vectors     FFT dimensions: (  40,  40,  40)

     Estimated max dynamical RAM per process >      99.42MB

     Estimated total allocated dynamical RAM >     397.68MB

     Initial potential from superposition of free atoms

     starting charge   25.99991, renormalised to   28.00000
     Starting wfc are   18 randomized atomic wfcs

     total cpu time spent up to now is        8.2 secs

     per-process dynamical memory:   109.1 Mb

     Self-consistent Calculation

     iteration #  1     ecut=    50.00 Ry     beta=0.70
     Davidson diagonalization with overlap
     ethr =  1.00E-02,  avg # of iterations =  2.7

     total cpu time spent up to now is       30.7 secs

     total energy              =    -317.48843080 Ry
     Harris-Foulkes estimate   =    -319.54252228 Ry
     estimated scf accuracy    <       2.50295937 Ry

     iteration #  2     ecut=    50.00 Ry     beta=0.70
     Davidson diagonalization with overlap
     ethr =  8.94E-03,  avg # of iterations =  3.0

     total cpu time spent up to now is       55.5 secs

     total energy              =    -318.39352022 Ry
     Harris-Foulkes estimate   =    -318.71100616 Ry
     estimated scf accuracy    <       0.47321073 Ry

     iteration #  3     ecut=    50.00 Ry     beta=0.70
     Davidson diagonalization with overlap
     ethr =  1.69E-03,  avg # of iterations =  2.0

     total cpu time spent up to now is       77.0 secs

     total energy              =    -318.48831808 Ry
     Harris-Foulkes estimate   =    -318.48989029 Ry
     estimated scf accuracy    <       0.00288100 Ry

     iteration #  4     ecut=    50.00 Ry     beta=0.70
     Davidson diagonalization with overlap
     ethr =  1.03E-05,  avg # of iterations =  3.0

     total cpu time spent up to now is      100.0 secs

     total energy              =    -318.48920983 Ry
     Harris-Foulkes estimate   =    -318.48932821 Ry
     estimated scf accuracy    <       0.00017563 Ry

     iteration #  5     ecut=    50.00 Ry     beta=0.70
     Davidson diagonalization with overlap
     ethr =  6.27E-07,  avg # of iterations =  3.0

     total cpu time spent up to now is      123.3 secs

     total energy              =    -318.48926344 Ry
     Harris-Foulkes estimate   =    -318.48926414 Ry
     estimated scf accuracy    <       0.00000146 Ry

     iteration #  6     ecut=    50.00 Ry     beta=0.70
     Davidson diagonalization with overlap
     ethr =  5.22E-09,  avg # of iterations =  3.9

     total cpu time spent up to now is      148.1 secs

     total energy              =    -318.48926422 Ry
     Harris-Foulkes estimate   =    -318.48926427 Ry
     estimated scf accuracy    <       0.00000008 Ry

     iteration #  7     ecut=    50.00 Ry     beta=0.70
     Davidson diagonalization with overlap
     ethr =  2.82E-10,  avg # of iterations =  3.1

     total cpu time spent up to now is      171.0 secs

     End of self-consistent calculation

     Number of k-points >= 100: set verbosity='high' to print the bands.

     highest occupied level (ev):     7.3834

!    total energy              =    -318.48926425 Ry
     Harris-Foulkes estimate   =    -318.48926425 Ry
     estimated scf accuracy    <          2.4E-09 Ry

     The total energy is the sum of the following terms:

     one-electron contribution =    -159.23524406 Ry
     hartree contribution      =      96.48298000 Ry
     xc contribution           =     -85.99223868 Ry
     ewald contribution        =    -169.74476152 Ry

     convergence has been achieved in   7 iterations


     Computing stress (Cartesian axis) and pressure

          total   stress  (Ry/bohr**3)                   (kbar)     P=   -6.25
  -0.00004250   0.00000000   0.00000000         -6.25      0.00      0.00
   0.00000000  -0.00004250   0.00000000          0.00     -6.25      0.00
   0.00000000   0.00000000  -0.00004250          0.00      0.00     -6.25


     Writing output data file sn.a.12.44.18.save

     init_run     :      7.88s CPU      8.10s WALL (       1 calls)
     electrons    :    158.46s CPU    162.86s WALL (       1 calls)
     stress       :      4.31s CPU      4.38s WALL (       1 calls)

     Called by init_run:
     wfcinit      :      7.39s CPU      7.59s WALL (       1 calls)
     potinit      :      0.06s CPU      0.06s WALL (       1 calls)

     Called by electrons:
     c_bands      :    136.95s CPU    140.65s WALL (       7 calls)
     sum_band     :     20.69s CPU     21.31s WALL (       7 calls)
     v_of_rho     :      0.36s CPU      0.37s WALL (       8 calls)
     newd         :      0.51s CPU      0.57s WALL (       8 calls)
     mix_rho      :      0.03s CPU      0.03s WALL (       7 calls)

     Called by c_bands:
     init_us_2    :      3.99s CPU      4.06s WALL (    9120 calls)
     cegterg      :    130.18s CPU    133.79s WALL (    3990 calls)

     Called by sum_band:
     sum_band:bec :      0.02s CPU      0.04s WALL (    3990 calls)
     addusdens    :      0.52s CPU      0.61s WALL (       7 calls)

     Called by *egterg:
     h_psi        :    112.63s CPU    116.14s WALL (   16349 calls)
     s_psi        :      2.48s CPU      2.51s WALL (   16349 calls)
     g_psi        :      0.72s CPU      0.72s WALL (   11789 calls)
     cdiaghg      :      6.96s CPU      6.98s WALL (   15779 calls)

     Called by h_psi:
     h_psi:pot    :    111.33s CPU    114.82s WALL (   16349 calls)
     h_psi:calbec :      4.84s CPU      4.94s WALL (   16349 calls)
     vloc_psi     :    103.12s CPU    106.38s WALL (   16349 calls)
     add_vuspsi   :      3.35s CPU      3.43s WALL (   16349 calls)

     General routines
     calbec       :      6.19s CPU      6.31s WALL (   20909 calls)
     fft          :      0.18s CPU      0.19s WALL (     138 calls)
     ffts         :      0.01s CPU      0.01s WALL (      15 calls)
     fftw         :     91.96s CPU     95.55s WALL (  433454 calls)
     interpolate  :      0.04s CPU      0.04s WALL (      15 calls)
     davcio       :      0.01s CPU      0.06s WALL (     570 calls)

     Parallel routines
     fft_scatter  :     15.75s CPU     15.24s WALL (  433607 calls)

     PWSCF        :  2m51.24s CPU     2m56.09s WALL


   This run was terminated on:   1:42:44  23Nov2017            

=------------------------------------------------------------------------------=
   JOB DONE.
=------------------------------------------------------------------------------=
