
     Program PWSCF v.6.1 (svn rev. 13369) starts on 13Nov2017 at  1:41:33 

     This program is part of the open-source Quantum ESPRESSO suite
     for quantum simulation of materials; please cite
         "P. Giannozzi et al., J. Phys.:Condens. Matter 21 395502 (2009);
          URL http://www.quantum-espresso.org", 
     in publications or presentations arising from this work. More details at
     http://www.quantum-espresso.org/quote

     Parallel version (MPI), running on     4 processors
     R & G space division:  proc/nbgrp/npool/nimage =       4
     Waiting for input...
     Reading input from standard input

     Current dimensions of program PWSCF are:
     Max number of different atomic species (ntypx) = 10
     Max number of k-points (npk) =  40000
     Max angular momentum in pseudopotentials (lmaxx) =  3

     Subspace diagonalization in iterative solution of the eigenvalue problem:
     a serial algorithm will be used


     Parallelization info
     --------------------
     sticks:   dense  smooth     PW     G-vecs:    dense   smooth      PW
     Min        1181     471    192                16585     4212    1090
     Max        1182     472    193                16586     4213    1091
     Sum        4725    1885    769                66341    16849    4361



     bravais-lattice index     =            0
     lattice parameter (alat)  =      11.0600  a.u.
     unit-cell volume          =     351.5307 (a.u.)^3
     number of atoms/cell      =            2
     number of atomic types    =            1
     number of electrons       =        28.00
     number of Kohn-Sham states=           18
     kinetic-energy cutoff     =      50.0000  Ry
     charge density cutoff     =     500.0000  Ry
     convergence threshold     =      1.0E-08
     mixing beta               =       0.7000
     number of iterations used =            8  plain     mixing
     Exchange-correlation      =  SLA  PW   PBX  PBC ( 1  4  3  4 0 0)

     celldm(1)=  11.060000  celldm(2)=   0.000000  celldm(3)=   0.000000
     celldm(4)=   0.000000  celldm(5)=   0.000000  celldm(6)=   0.000000

     crystal axes: (cart. coord. in units of alat)
               a(1) = (   0.986837   0.000000   0.000000 )  
               a(2) = (   0.000000   0.986837   0.000000 )  
               a(3) = (   0.493419   0.493419   0.266813 )  

     reciprocal axes: (cart. coord. in units 2 pi/alat)
               b(1) = (  1.013339  0.000000 -1.873974 )  
               b(2) = (  0.000000  1.013339 -1.873974 )  
               b(3) = (  0.000000  0.000000  3.747943 )  


     PseudoPot. # 1 for Sn read from file:
     /home/s1333534/quantum_espresso/qe-6.1/pseudo/sn_pbe_v1.4.uspp.F.UPF
     MD5 check sum: 469debedee59599fedebd795477fea03
     Pseudo is Ultrasoft + core correction, Zval = 14.0
     Generated by new atomic code, or converted to UPF format
     Using radial grid of  891 points,  6 beta functions with: 
                l(1) =   0
                l(2) =   0
                l(3) =   1
                l(4) =   1
                l(5) =   2
                l(6) =   2
     Q(r) pseudized with  8 coefficients,  rinner =    1.350   1.350   1.350
                                                       1.350   1.350

     atomic species   valence    mass     pseudopotential
        Sn            14.00   118.71000     Sn( 1.00)

     No symmetry found



   Cartesian axes

     site n.     atom                  positions (alat units)
         1           Sn  tau(   1) = (   1.0725850   1.3160481   0.0533919  )
         2           Sn  tau(   2) = (   0.5198369   0.2763739   0.0177973  )

     number of k points=   448  Marzari-Vanderbilt smearing, width (Ry)=  0.0200

     Number of k-points >= 100: set verbosity='high' to print them.

     Dense  grid:    66341 G-vectors     FFT dimensions: (  80,  80,  60)

     Smooth grid:    16849 G-vectors     FFT dimensions: (  50,  50,  40)

     Estimated max dynamical RAM per process >      79.37MB

     Estimated total allocated dynamical RAM >     317.47MB

     Initial potential from superposition of free atoms

     starting charge   25.99991, renormalised to   28.00000
     Starting wfc are   18 randomized atomic wfcs

     total cpu time spent up to now is       11.7 secs

     per-process dynamical memory:    87.4 Mb

     Self-consistent Calculation

     iteration #  1     ecut=    50.00 Ry     beta=0.70
     Davidson diagonalization with overlap
     ethr =  1.00E-02,  avg # of iterations =  4.0

     total cpu time spent up to now is       55.2 secs

     total energy              =    -317.50333667 Ry
     Harris-Foulkes estimate   =    -319.44558561 Ry
     estimated scf accuracy    <       2.37893554 Ry

     iteration #  2     ecut=    50.00 Ry     beta=0.70
     Davidson diagonalization with overlap
     ethr =  8.50E-03,  avg # of iterations =  2.5

     total cpu time spent up to now is       92.4 secs

     total energy              =    -318.34393530 Ry
     Harris-Foulkes estimate   =    -318.63771990 Ry
     estimated scf accuracy    <       0.43231140 Ry

     iteration #  3     ecut=    50.00 Ry     beta=0.70
     Davidson diagonalization with overlap
     ethr =  1.54E-03,  avg # of iterations =  2.0

     total cpu time spent up to now is      128.8 secs

     total energy              =    -318.43351871 Ry
     Harris-Foulkes estimate   =    -318.43518828 Ry
     estimated scf accuracy    <       0.00283708 Ry

     iteration #  4     ecut=    50.00 Ry     beta=0.70
     Davidson diagonalization with overlap
     ethr =  1.01E-05,  avg # of iterations =  3.6

     total cpu time spent up to now is      169.9 secs

     total energy              =    -318.43412093 Ry
     Harris-Foulkes estimate   =    -318.43427433 Ry
     estimated scf accuracy    <       0.00030730 Ry

     iteration #  5     ecut=    50.00 Ry     beta=0.70
     Davidson diagonalization with overlap
     ethr =  1.10E-06,  avg # of iterations =  2.6

     total cpu time spent up to now is      201.1 secs

     total energy              =    -318.43416915 Ry
     Harris-Foulkes estimate   =    -318.43417917 Ry
     estimated scf accuracy    <       0.00001735 Ry

     iteration #  6     ecut=    50.00 Ry     beta=0.70
     Davidson diagonalization with overlap
     ethr =  6.19E-08,  avg # of iterations =  3.0

     total cpu time spent up to now is      240.2 secs

     total energy              =    -318.43417565 Ry
     Harris-Foulkes estimate   =    -318.43417603 Ry
     estimated scf accuracy    <       0.00000083 Ry

     iteration #  7     ecut=    50.00 Ry     beta=0.70
     Davidson diagonalization with overlap
     ethr =  2.97E-09,  avg # of iterations =  2.9

     total cpu time spent up to now is      276.1 secs

     total energy              =    -318.43417577 Ry
     Harris-Foulkes estimate   =    -318.43417589 Ry
     estimated scf accuracy    <       0.00000017 Ry

     iteration #  8     ecut=    50.00 Ry     beta=0.70
     Davidson diagonalization with overlap
     ethr =  6.00E-10,  avg # of iterations =  2.9

     total cpu time spent up to now is      314.1 secs

     End of self-consistent calculation

     Number of k-points >= 100: set verbosity='high' to print the bands.

     the Fermi energy is    11.3792 ev

!    total energy              =    -318.43417583 Ry
     Harris-Foulkes estimate   =    -318.43417583 Ry
     estimated scf accuracy    <          5.2E-09 Ry

     The total energy is the sum of the following terms:

     one-electron contribution =    -111.93170237 Ry
     hartree contribution      =      76.95789150 Ry
     xc contribution           =     -86.12330968 Ry
     ewald contribution        =    -197.33713512 Ry
     smearing contrib. (-TS)   =       0.00007984 Ry

     convergence has been achieved in   8 iterations

     Writing output data file sn.beta.11.06.save

     init_run     :     11.29s CPU     11.65s WALL (       1 calls)
     electrons    :    295.59s CPU    302.40s WALL (       1 calls)

     Called by init_run:
     wfcinit      :     10.22s CPU     10.56s WALL (       1 calls)
     potinit      :      0.28s CPU      0.30s WALL (       1 calls)

     Called by electrons:
     c_bands      :    246.32s CPU    251.96s WALL (       8 calls)
     sum_band     :     47.62s CPU     48.65s WALL (       8 calls)
     v_of_rho     :      0.85s CPU      0.90s WALL (       9 calls)
     newd         :      0.84s CPU      0.90s WALL (       9 calls)
     mix_rho      :      0.08s CPU      0.08s WALL (       8 calls)

     Called by c_bands:
     init_us_2    :      2.31s CPU      2.35s WALL (    7616 calls)
     cegterg      :    241.80s CPU    247.34s WALL (    3584 calls)

     Called by sum_band:
     sum_band:bec :      0.04s CPU      0.05s WALL (    3584 calls)
     addusdens    :      0.96s CPU      1.05s WALL (       8 calls)

     Called by *egterg:
     h_psi        :    226.96s CPU    232.49s WALL (   14580 calls)
     s_psi        :      1.93s CPU      1.94s WALL (   14580 calls)
     g_psi        :      0.51s CPU      0.52s WALL (   10548 calls)
     cdiaghg      :      9.17s CPU      9.27s WALL (   14132 calls)

     Called by h_psi:
     h_psi:pot    :    225.80s CPU    231.31s WALL (   14580 calls)
     h_psi:calbec :      4.06s CPU      4.11s WALL (   14580 calls)
     vloc_psi     :    218.99s CPU    224.38s WALL (   14580 calls)
     add_vuspsi   :      2.74s CPU      2.77s WALL (   14580 calls)

     General routines
     calbec       :      5.37s CPU      5.42s WALL (   18164 calls)
     fft          :      0.59s CPU      0.63s WALL (     140 calls)
     ffts         :      0.01s CPU      0.01s WALL (      17 calls)
     fftw         :    179.92s CPU    184.50s WALL (  448562 calls)
     interpolate  :      0.10s CPU      0.11s WALL (      17 calls)
     davcio       :      0.01s CPU      0.02s WALL (     448 calls)

     Parallel routines
     fft_scatter  :     32.97s CPU     34.04s WALL (  448719 calls)

     PWSCF        :  5m 7.47s CPU     5m21.60s WALL


   This run was terminated on:   1:46:55  13Nov2017            

=------------------------------------------------------------------------------=
   JOB DONE.
=------------------------------------------------------------------------------=
