
     Program PWSCF v.6.1 (svn rev. 13369) starts on 11Nov2017 at 16:12:37 

     This program is part of the open-source Quantum ESPRESSO suite
     for quantum simulation of materials; please cite
         "P. Giannozzi et al., J. Phys.:Condens. Matter 21 395502 (2009);
          URL http://www.quantum-espresso.org", 
     in publications or presentations arising from this work. More details at
     http://www.quantum-espresso.org/quote

     Parallel version (MPI), running on     4 processors
     R & G space division:  proc/nbgrp/npool/nimage =       4
     Waiting for input...
     Reading input from standard input
     Message from routine read_cards :
     DEPRECATED: no units specified in ATOMIC_POSITIONS card
     Message from routine read_cards :
     ATOMIC_POSITIONS: units set to alat

     Current dimensions of program PWSCF are:
     Max number of different atomic species (ntypx) = 10
     Max number of k-points (npk) =  40000
     Max angular momentum in pseudopotentials (lmaxx) =  3

     Subspace diagonalization in iterative solution of the eigenvalue problem:
     a serial algorithm will be used


     Parallelization info
     --------------------
     sticks:   dense  smooth     PW     G-vecs:    dense   smooth      PW
     Min         543     267     82                16737     5897     985
     Max         544     271     85                16739     5898     986
     Sum        2173    1075    337                66953    23589    3943



     bravais-lattice index     =            2
     lattice parameter (alat)  =      12.5700  a.u.
     unit-cell volume          =     496.5304 (a.u.)^3
     number of atoms/cell      =            2
     number of atomic types    =            1
     number of electrons       =        28.00
     number of Kohn-Sham states=           14
     kinetic-energy cutoff     =      50.0000  Ry
     charge density cutoff     =     400.0000  Ry
     convergence threshold     =      1.0E-08
     mixing beta               =       0.7000
     number of iterations used =            8  plain     mixing
     Exchange-correlation      =  SLA  PW   PBX  PBC ( 1  4  3  4 0 0)

     celldm(1)=  12.570000  celldm(2)=   0.000000  celldm(3)=   0.000000
     celldm(4)=   0.000000  celldm(5)=   0.000000  celldm(6)=   0.000000

     crystal axes: (cart. coord. in units of alat)
               a(1) = (  -0.500000   0.000000   0.500000 )  
               a(2) = (   0.000000   0.500000   0.500000 )  
               a(3) = (  -0.500000   0.500000   0.000000 )  

     reciprocal axes: (cart. coord. in units 2 pi/alat)
               b(1) = ( -1.000000 -1.000000  1.000000 )  
               b(2) = (  1.000000  1.000000  1.000000 )  
               b(3) = ( -1.000000  1.000000 -1.000000 )  


     PseudoPot. # 1 for Sn read from file:
     /home/s1333534/quantum_espresso/qe-6.1/pseudo/sn_pbe_v1.4.uspp.F.UPF
     MD5 check sum: 469debedee59599fedebd795477fea03
     Pseudo is Ultrasoft + core correction, Zval = 14.0
     Generated by new atomic code, or converted to UPF format
     Using radial grid of  891 points,  6 beta functions with: 
                l(1) =   0
                l(2) =   0
                l(3) =   1
                l(4) =   1
                l(5) =   2
                l(6) =   2
     Q(r) pseudized with  8 coefficients,  rinner =    1.350   1.350   1.350
                                                       1.350   1.350

     atomic species   valence    mass     pseudopotential
        Sn            14.00   118.71000     Sn( 1.00)

     48 Sym. Ops., with inversion, found (24 have fractional translation)



   Cartesian axes

     site n.     atom                  positions (alat units)
         1           Sn  tau(   1) = (   0.0000000   0.0000000   0.0000000  )
         2           Sn  tau(   2) = (   0.2500000   0.2500000   0.2500000  )

     number of k points=    60
                       cart. coord. in units 2pi/alat
        k(    1) = (  -0.0625000   0.0625000   0.0625000), wk =   0.0078125
        k(    2) = (  -0.1875000   0.1875000  -0.0625000), wk =   0.0234375
        k(    3) = (  -0.3125000   0.3125000  -0.1875000), wk =   0.0234375
        k(    4) = (  -0.4375000   0.4375000  -0.3125000), wk =   0.0234375
        k(    5) = (   0.4375000  -0.4375000   0.5625000), wk =   0.0234375
        k(    6) = (   0.3125000  -0.3125000   0.4375000), wk =   0.0234375
        k(    7) = (   0.1875000  -0.1875000   0.3125000), wk =   0.0234375
        k(    8) = (   0.0625000  -0.0625000   0.1875000), wk =   0.0234375
        k(    9) = (  -0.0625000   0.3125000   0.0625000), wk =   0.0234375
        k(   10) = (  -0.1875000   0.4375000  -0.0625000), wk =   0.0468750
        k(   11) = (  -0.3125000   0.5625000  -0.1875000), wk =   0.0468750
        k(   12) = (   0.5625000  -0.3125000   0.6875000), wk =   0.0468750
        k(   13) = (   0.4375000  -0.1875000   0.5625000), wk =   0.0468750
        k(   14) = (   0.3125000  -0.0625000   0.4375000), wk =   0.0468750
        k(   15) = (   0.1875000   0.0625000   0.3125000), wk =   0.0468750
        k(   16) = (  -0.0625000   0.5625000   0.0625000), wk =   0.0234375
        k(   17) = (  -0.1875000   0.6875000  -0.0625000), wk =   0.0468750
        k(   18) = (   0.6875000  -0.1875000   0.8125000), wk =   0.0468750
        k(   19) = (   0.5625000  -0.0625000   0.6875000), wk =   0.0468750
        k(   20) = (   0.4375000   0.0625000   0.5625000), wk =   0.0468750
        k(   21) = (   0.3125000   0.1875000   0.4375000), wk =   0.0468750
        k(   22) = (  -0.0625000   0.8125000   0.0625000), wk =   0.0234375
        k(   23) = (   0.8125000  -0.0625000   0.9375000), wk =   0.0468750
        k(   24) = (   0.6875000   0.0625000   0.8125000), wk =   0.0468750
        k(   25) = (   0.5625000   0.1875000   0.6875000), wk =   0.0468750
        k(   26) = (   0.4375000   0.3125000   0.5625000), wk =   0.0468750
        k(   27) = (  -0.0625000  -0.9375000   0.0625000), wk =   0.0234375
        k(   28) = (  -0.1875000  -0.8125000  -0.0625000), wk =   0.0468750
        k(   29) = (  -0.3125000  -0.6875000  -0.1875000), wk =   0.0468750
        k(   30) = (  -0.0625000  -0.6875000   0.0625000), wk =   0.0234375
        k(   31) = (  -0.1875000  -0.5625000  -0.0625000), wk =   0.0468750
        k(   32) = (  -0.0625000  -0.4375000   0.0625000), wk =   0.0234375
        k(   33) = (  -0.1875000   0.1875000   0.1875000), wk =   0.0078125
        k(   34) = (  -0.3125000   0.3125000   0.0625000), wk =   0.0234375
        k(   35) = (  -0.4375000   0.4375000  -0.0625000), wk =   0.0234375
        k(   36) = (   0.4375000  -0.4375000   0.8125000), wk =   0.0234375
        k(   37) = (   0.3125000  -0.3125000   0.6875000), wk =   0.0234375
        k(   38) = (   0.1875000  -0.1875000   0.5625000), wk =   0.0234375
        k(   39) = (  -0.1875000   0.4375000   0.1875000), wk =   0.0234375
        k(   40) = (  -0.3125000   0.5625000   0.0625000), wk =   0.0468750
        k(   41) = (   0.5625000  -0.3125000   0.9375000), wk =   0.0468750
        k(   42) = (   0.4375000  -0.1875000   0.8125000), wk =   0.0468750
        k(   43) = (   0.3125000  -0.0625000   0.6875000), wk =   0.0468750
        k(   44) = (  -0.1875000   0.6875000   0.1875000), wk =   0.0234375
        k(   45) = (   0.6875000  -0.1875000   1.0625000), wk =   0.0468750
        k(   46) = (   0.5625000  -0.0625000   0.9375000), wk =   0.0468750
        k(   47) = (   0.4375000   0.0625000   0.8125000), wk =   0.0468750
        k(   48) = (  -0.1875000  -1.0625000   0.1875000), wk =   0.0234375
        k(   49) = (  -0.3125000  -0.9375000   0.0625000), wk =   0.0468750
        k(   50) = (  -0.1875000  -0.8125000   0.1875000), wk =   0.0234375
        k(   51) = (  -0.3125000   0.3125000   0.3125000), wk =   0.0078125
        k(   52) = (  -0.4375000   0.4375000   0.1875000), wk =   0.0234375
        k(   53) = (   0.4375000  -0.4375000   1.0625000), wk =   0.0234375
        k(   54) = (   0.3125000  -0.3125000   0.9375000), wk =   0.0234375
        k(   55) = (  -0.3125000   0.5625000   0.3125000), wk =   0.0234375
        k(   56) = (   0.5625000  -0.3125000   1.1875000), wk =   0.0468750
        k(   57) = (   0.4375000  -0.1875000   1.0625000), wk =   0.0468750
        k(   58) = (  -0.3125000  -1.1875000   0.3125000), wk =   0.0234375
        k(   59) = (  -0.4375000   0.4375000   0.4375000), wk =   0.0078125
        k(   60) = (   0.4375000  -0.4375000   1.3125000), wk =   0.0234375

     Dense  grid:    66953 G-vectors     FFT dimensions: (  60,  60,  60)

     Smooth grid:    23589 G-vectors     FFT dimensions: (  45,  45,  45)

     Estimated max dynamical RAM per process >      21.76MB

     Estimated total allocated dynamical RAM >      87.05MB

     Initial potential from superposition of free atoms

     starting charge   25.99991, renormalised to   28.00000
     Starting wfc are   18 randomized atomic wfcs

     total cpu time spent up to now is        1.6 secs

     per-process dynamical memory:    25.9 Mb

     Self-consistent Calculation

     iteration #  1     ecut=    50.00 Ry     beta=0.70
     Davidson diagonalization with overlap
     ethr =  1.00E-02,  avg # of iterations =  2.6

     total cpu time spent up to now is        5.0 secs

     total energy              =    -317.48490574 Ry
     Harris-Foulkes estimate   =    -319.54888872 Ry
     estimated scf accuracy    <       2.51469679 Ry

     iteration #  2     ecut=    50.00 Ry     beta=0.70
     Davidson diagonalization with overlap
     ethr =  8.98E-03,  avg # of iterations =  3.0

     total cpu time spent up to now is        8.6 secs

     total energy              =    -318.39371974 Ry
     Harris-Foulkes estimate   =    -318.71212363 Ry
     estimated scf accuracy    <       0.47404247 Ry

     iteration #  3     ecut=    50.00 Ry     beta=0.70
     Davidson diagonalization with overlap
     ethr =  1.69E-03,  avg # of iterations =  2.0

     total cpu time spent up to now is       11.8 secs

     total energy              =    -318.48885571 Ry
     Harris-Foulkes estimate   =    -318.49042590 Ry
     estimated scf accuracy    <       0.00287940 Ry

     iteration #  4     ecut=    50.00 Ry     beta=0.70
     Davidson diagonalization with overlap
     ethr =  1.03E-05,  avg # of iterations =  3.0

     total cpu time spent up to now is       15.2 secs

     total energy              =    -318.48974159 Ry
     Harris-Foulkes estimate   =    -318.48985939 Ry
     estimated scf accuracy    <       0.00017447 Ry

     iteration #  5     ecut=    50.00 Ry     beta=0.70
     Davidson diagonalization with overlap
     ethr =  6.23E-07,  avg # of iterations =  3.0

     total cpu time spent up to now is       18.6 secs

     total energy              =    -318.48979512 Ry
     Harris-Foulkes estimate   =    -318.48979589 Ry
     estimated scf accuracy    <       0.00000156 Ry

     iteration #  6     ecut=    50.00 Ry     beta=0.70
     Davidson diagonalization with overlap
     ethr =  5.56E-09,  avg # of iterations =  3.9

     total cpu time spent up to now is       22.3 secs

     total energy              =    -318.48979591 Ry
     Harris-Foulkes estimate   =    -318.48979595 Ry
     estimated scf accuracy    <       0.00000007 Ry

     iteration #  7     ecut=    50.00 Ry     beta=0.70
     Davidson diagonalization with overlap
     ethr =  2.58E-10,  avg # of iterations =  3.1

     total cpu time spent up to now is       25.8 secs

     End of self-consistent calculation

          k =-0.0625 0.0625 0.0625 (  2936 PWs)   bands (ev):

   -14.6278 -14.6278 -14.6243 -14.5728 -14.5728 -14.3332 -14.3332 -14.3239
   -14.3120 -14.3120  -3.1553   5.3858   6.9536   6.9536

          k =-0.1875 0.1875-0.0625 (  2950 PWs)   bands (ev):

   -14.6400 -14.6349 -14.6209 -14.5621 -14.5555 -14.3565 -14.3470 -14.3216
   -14.3067 -14.2943  -2.9703   4.2180   6.2747   6.8163

          k =-0.3125 0.3125-0.1875 (  2951 PWs)   bands (ev):

   -14.6512 -14.6479 -14.6101 -14.5445 -14.5348 -14.3746 -14.3629 -14.3373
   -14.2897 -14.2822  -2.5305   2.6530   5.7818   6.3945

          k =-0.4375 0.4375-0.3125 (  2965 PWs)   bands (ev):

   -14.6567 -14.6563 -14.5998 -14.5315 -14.5243 -14.3822 -14.3728 -14.3527
   -14.2791 -14.2777  -1.9504   1.3538   5.5361   6.0362

          k = 0.4375-0.4375 0.5625 (  2956 PWs)   bands (ev):

   -14.6597 -14.6557 -14.5965 -14.5254 -14.5246 -14.3810 -14.3787 -14.3555
   -14.2788 -14.2747  -1.6935   0.9109   5.5356   5.8630

          k = 0.3125-0.3125 0.4375 (  2958 PWs)   bands (ev):

   -14.6572 -14.6517 -14.6040 -14.5347 -14.5259 -14.3840 -14.3689 -14.3457
   -14.2846 -14.2767  -2.1421   1.7286   5.7648   5.9126

          k = 0.1875-0.1875 0.3125 (  2943 PWs)   bands (ev):

   -14.6481 -14.6429 -14.6155 -14.5503 -14.5394 -14.3744 -14.3536 -14.3308
   -14.2947 -14.2859  -2.7013   3.1679   6.1811   6.1823

          k = 0.0625-0.0625 0.1875 (  2953 PWs)   bands (ev):

   -14.6341 -14.6313 -14.6250 -14.5688 -14.5606 -14.3544 -14.3337 -14.3206
   -14.3116 -14.3008  -3.0621   4.7302   6.6089   6.6415

          k =-0.0625 0.3125 0.0625 (  2943 PWs)   bands (ev):

   -14.6403 -14.6369 -14.6265 -14.5599 -14.5398 -14.3809 -14.3394 -14.3136
   -14.3061 -14.2940  -2.8765   3.9289   6.1393   6.1547

          k =-0.1875 0.4375-0.0625 (  2951 PWs)   bands (ev):

   -14.6534 -14.6482 -14.6140 -14.5439 -14.5164 -14.4061 -14.3560 -14.3243
   -14.2916 -14.2809  -2.5163   2.8242   5.3693   5.9169

          k =-0.3125 0.5625-0.1875 (  2966 PWs)   bands (ev):

   -14.6677 -14.6570 -14.5922 -14.5263 -14.5028 -14.4170 -14.3749 -14.3501
   -14.2784 -14.2665  -1.9556   1.5859   4.8621   5.6174

          k = 0.5625-0.3125 0.6875 (  2966 PWs)   bands (ev):

   -14.6740 -14.6615 -14.5766 -14.5130 -14.5060 -14.4078 -14.3919 -14.3682
   -14.2721 -14.2595  -1.4996   0.8265   4.6009   5.5507

          k = 0.4375-0.1875 0.5625 (  2970 PWs)   bands (ev):

   -14.6705 -14.6616 -14.5802 -14.5242 -14.5045 -14.4069 -14.3793 -14.3693
   -14.2717 -14.2643  -1.7676   1.2520   4.6048   5.7573

          k = 0.3125-0.0625 0.4375 (  2956 PWs)   bands (ev):

   -14.6581 -14.6556 -14.5993 -14.5402 -14.5162 -14.3994 -14.3650 -14.3430
   -14.2825 -14.2750  -2.3509   2.3934   4.9610   6.1443

          k = 0.1875 0.0625 0.3125 (  2945 PWs)   bands (ev):

   -14.6465 -14.6409 -14.6179 -14.5549 -14.5389 -14.3780 -14.3495 -14.3223
   -14.3008 -14.2870  -2.7877   3.5410   5.8143   6.4366

          k =-0.0625 0.5625 0.0625 (  2953 PWs)   bands (ev):

   -14.6553 -14.6523 -14.6181 -14.5290 -14.4862 -14.4431 -14.3684 -14.3136
   -14.2854 -14.2814  -2.2356   2.2871   5.2518   5.3400

          k =-0.1875 0.6875-0.0625 (  2969 PWs)   bands (ev):

   -14.6677 -14.6623 -14.5943 -14.5083 -14.4686 -14.4618 -14.3897 -14.3403
   -14.2723 -14.2664  -1.7225   1.3804   4.6884   5.0789

          k = 0.6875-0.1875 0.8125 (  2971 PWs)   bands (ev):

   -14.6819 -14.6671 -14.5641 -14.4887 -14.4718 -14.4562 -14.4126 -14.3715
   -14.2654 -14.2505  -1.1503   0.5822   4.1126   5.0481

          k = 0.5625-0.0625 0.6875 (  2973 PWs)   bands (ev):

   -14.6844 -14.6683 -14.5557 -14.4936 -14.4757 -14.4396 -14.4202 -14.3810
   -14.2635 -14.2483  -1.2144   0.6637   3.9002   5.3006

          k = 0.4375 0.0625 0.5625 (  2969 PWs)   bands (ev):

   -14.6732 -14.6645 -14.5733 -14.5234 -14.4948 -14.4180 -14.3806 -14.3749
   -14.2677 -14.2619  -1.7958   1.4188   4.2794   5.7338

          k = 0.3125 0.1875 0.4375 (  2960 PWs)   bands (ev):

   -14.6586 -14.6524 -14.6022 -14.5382 -14.5211 -14.3928 -14.3657 -14.3434
   -14.2846 -14.2754  -2.2796   2.1144   5.3261   6.0509

          k =-0.0625 0.8125 0.0625 (  2968 PWs)   bands (ev):

   -14.6676 -14.6651 -14.5875 -14.5077 -14.4853 -14.4258 -14.4115 -14.3454
   -14.2679 -14.2654  -1.2590   0.7269   4.7209   4.8462

          k = 0.8125-0.0625 0.9375 (  2959 PWs)   bands (ev):

   -14.6754 -14.6702 -14.5558 -14.5259 -14.4613 -14.4362 -14.4072 -14.3779
   -14.2612 -14.2558  -0.6407   0.0098   4.3794   4.6979

          k = 0.6875 0.0625 0.8125 (  2968 PWs)   bands (ev):

   -14.6850 -14.6698 -14.5515 -14.4861 -14.4670 -14.4446 -14.4337 -14.3823
   -14.2617 -14.2468  -0.7725   0.1741   3.9373   4.9359

          k = 0.5625 0.1875 0.6875 (  2968 PWs)   bands (ev):

   -14.6807 -14.6656 -14.5639 -14.5015 -14.4904 -14.4255 -14.4074 -14.3760
   -14.2669 -14.2521  -1.3161   0.7065   4.1595   5.3842

          k = 0.4375 0.3125 0.5625 (  2968 PWs)   bands (ev):

   -14.6652 -14.6578 -14.5897 -14.5250 -14.5168 -14.3922 -14.3788 -14.3608
   -14.2767 -14.2691  -1.7253   1.0444   5.1054   5.7977

          k =-0.0625-0.9375 0.0625 (  2973 PWs)   bands (ev):

   -14.6704 -14.6682 -14.5650 -14.5376 -14.4610 -14.4359 -14.3967 -14.3690
   -14.2637 -14.2613  -0.6591   0.0078   4.6124   4.7447

          k =-0.1875-0.8125-0.0625 (  2968 PWs)   bands (ev):

   -14.6728 -14.6676 -14.5769 -14.4984 -14.4856 -14.4339 -14.4121 -14.3571
   -14.2653 -14.2596  -1.2119   0.6782   4.4835   4.8258

          k =-0.3125-0.6875-0.1875 (  2974 PWs)   bands (ev):

   -14.6759 -14.6624 -14.5792 -14.5092 -14.4827 -14.4420 -14.3918 -14.3594
   -14.2715 -14.2576  -1.5711   1.0733   4.4376   5.2748

          k =-0.0625-0.6875 0.0625 (  2960 PWs)   bands (ev):

   -14.6621 -14.6596 -14.6055 -14.5082 -14.4759 -14.4562 -14.3886 -14.3265
   -14.2754 -14.2725  -1.7868   1.4906   4.9357   5.0465

          k =-0.1875-0.5625-0.0625 (  2962 PWs)   bands (ev):

   -14.6608 -14.6557 -14.6066 -14.5282 -14.4904 -14.4366 -14.3704 -14.3292
   -14.2814 -14.2741  -2.1596   2.0996   4.9872   5.4490

          k =-0.0625-0.4375 0.0625 (  2941 PWs)   bands (ev):

   -14.6475 -14.6445 -14.6248 -14.5463 -14.5144 -14.4110 -14.3514 -14.3090
   -14.2961 -14.2892  -2.6001   3.1047   5.6596   5.7162

          k =-0.1875 0.1875 0.1875 (  2947 PWs)   bands (ev):

   -14.6407 -14.6407 -14.6181 -14.5543 -14.5543 -14.3543 -14.3543 -14.3309
   -14.2952 -14.2952  -2.8802   3.7691   6.5572   6.5572

          k =-0.3125 0.3125 0.0625 (  2952 PWs)   bands (ev):

   -14.6521 -14.6480 -14.6085 -14.5482 -14.5320 -14.3793 -14.3624 -14.3322
   -14.2929 -14.2804  -2.6115   2.9900   5.3762   6.5256

          k =-0.4375 0.4375-0.0625 (  2959 PWs)   bands (ev):

   -14.6651 -14.6611 -14.5851 -14.5345 -14.5089 -14.4002 -14.3732 -14.3619
   -14.2718 -14.2712  -2.1083   1.9107   4.5796   6.1076

          k = 0.4375-0.4375 0.8125 (  2974 PWs)   bands (ev):

   -14.6759 -14.6635 -14.5711 -14.5153 -14.5008 -14.4051 -14.3983 -14.3744
   -14.2692 -14.2583  -1.5447   0.9491   4.3532   5.6869

          k = 0.3125-0.3125 0.6875 (  2969 PWs)   bands (ev):

   -14.6758 -14.6605 -14.5793 -14.5104 -14.4972 -14.4240 -14.3916 -14.3613
   -14.2735 -14.2576  -1.5303   0.9264   4.5317   5.4503

          k = 0.1875-0.1875 0.5625 (  2957 PWs)   bands (ev):

   -14.6649 -14.6537 -14.6021 -14.5273 -14.4960 -14.4288 -14.3720 -14.3353
   -14.2831 -14.2694  -2.0900   1.8979   5.0172   5.4596

          k =-0.1875 0.4375 0.1875 (  2956 PWs)   bands (ev):

   -14.6565 -14.6476 -14.6106 -14.5419 -14.5194 -14.4004 -14.3592 -14.3306
   -14.2909 -14.2779  -2.4364   2.5347   5.5729   5.7990

          k =-0.3125 0.5625 0.0625 (  2972 PWs)   bands (ev):

   -14.6663 -14.6615 -14.5897 -14.5271 -14.4951 -14.4264 -14.3740 -14.3519
   -14.2733 -14.2685  -2.0108   1.7876   4.6184   5.6202

          k = 0.5625-0.3125 0.9375 (  2976 PWs)   bands (ev):

   -14.6796 -14.6689 -14.5614 -14.5067 -14.4759 -14.4430 -14.3998 -14.3788
   -14.2633 -14.2539  -1.4242   0.9320   4.0867   5.2318

          k = 0.4375-0.1875 0.8125 (  2976 PWs)   bands (ev):

   -14.6831 -14.6699 -14.5547 -14.4928 -14.4722 -14.4499 -14.4140 -14.3821
   -14.2623 -14.2493  -1.1227   0.5393   4.0488   5.0179

          k = 0.3125-0.0625 0.6875 (  2977 PWs)   bands (ev):

   -14.6735 -14.6670 -14.5770 -14.5087 -14.4713 -14.4547 -14.3919 -14.3611
   -14.2664 -14.2605  -1.5984   1.1825   4.3698   5.1378

          k =-0.1875 0.6875 0.1875 (  2973 PWs)   bands (ev):

   -14.6728 -14.6603 -14.5895 -14.5084 -14.4725 -14.4564 -14.3902 -14.3462
   -14.2746 -14.2610  -1.6693   1.2634   4.5707   5.1901

          k = 0.6875-0.1875 1.0625 (  2964 PWs)   bands (ev):

   -14.6784 -14.6717 -14.5602 -14.4873 -14.4832 -14.4452 -14.4137 -14.3746
   -14.2603 -14.2539  -1.1245   0.5839   4.2234   4.7670

          k = 0.5625-0.0625 0.9375 (  2980 PWs)   bands (ev):

   -14.6836 -14.6782 -14.5284 -14.4941 -14.4664 -14.4417 -14.4323 -14.4033
   -14.2534 -14.2482  -0.5935   0.0123   4.0510   4.4475

          k = 0.4375 0.0625 0.8125 (  2976 PWs)   bands (ev):

   -14.6829 -14.6742 -14.5459 -14.4872 -14.4699 -14.4538 -14.4198 -14.3891
   -14.2579 -14.2492  -1.0097   0.4547   4.0151   4.7692

          k =-0.1875-1.0625 0.1875 (  2963 PWs)   bands (ev):

   -14.6813 -14.6682 -14.5570 -14.5084 -14.4629 -14.4351 -14.4241 -14.3769
   -14.2634 -14.2503  -0.6868   0.0682   4.1039   4.9098

          k =-0.3125-0.9375 0.0625 (  2968 PWs)   bands (ev):

   -14.6807 -14.6748 -14.5411 -14.5085 -14.4634 -14.4377 -14.4225 -14.3919
   -14.2568 -14.2508  -0.6136   0.0117   4.1686   4.5552

          k =-0.1875-0.8125 0.1875 (  2958 PWs)   bands (ev):

   -14.6783 -14.6652 -14.5730 -14.4867 -14.4862 -14.4442 -14.4121 -14.3611
   -14.2675 -14.2538  -1.1872   0.6397   4.2614   5.0044

          k =-0.3125 0.3125 0.3125 (  2938 PWs)   bands (ev):

   -14.6502 -14.6502 -14.6095 -14.5369 -14.5369 -14.3692 -14.3692 -14.3419
   -14.2842 -14.2842  -2.3718   2.1926   6.1722   6.1722

          k =-0.4375 0.4375 0.1875 (  2949 PWs)   bands (ev):

   -14.6614 -14.6589 -14.5910 -14.5334 -14.5157 -14.3922 -14.3716 -14.3589
   -14.2748 -14.2735  -2.0526   1.6720   4.9600   6.0852

          k = 0.4375-0.4375 1.0625 (  2969 PWs)   bands (ev):

   -14.6800 -14.6660 -14.5630 -14.5116 -14.4884 -14.4179 -14.4064 -14.3779
   -14.2659 -14.2537  -1.5252   1.0370   4.0295   5.6435

          k = 0.3125-0.3125 0.9375 (  2976 PWs)   bands (ev):

   -14.6864 -14.6680 -14.5558 -14.4724 -14.4711 -14.4576 -14.4298 -14.3791
   -14.2639 -14.2459  -0.9886   0.4041   3.8448   5.2223

          k =-0.3125 0.5625 0.3125 (  2967 PWs)   bands (ev):

   -14.6666 -14.6551 -14.5932 -14.5257 -14.5124 -14.4034 -14.3767 -14.3520
   -14.2802 -14.2673  -1.8542   1.3023   5.1180   5.6613

          k = 0.5625-0.3125 1.1875 (  2975 PWs)   bands (ev):

   -14.6780 -14.6655 -14.5680 -14.5093 -14.4895 -14.4281 -14.3963 -14.3739
   -14.2675 -14.2554  -1.4449   0.8702   4.2927   5.3434

          k = 0.4375-0.1875 1.0625 (  2973 PWs)   bands (ev):

   -14.6854 -14.6729 -14.5440 -14.4793 -14.4671 -14.4557 -14.4299 -14.3897
   -14.2588 -14.2465  -0.8858   0.3102   3.9096   4.8473

          k =-0.3125-1.1875 0.3125 (  2966 PWs)   bands (ev):

   -14.6826 -14.6650 -14.5653 -14.4909 -14.4826 -14.4431 -14.4109 -14.3715
   -14.2675 -14.2499  -1.2128   0.6117   4.0868   5.3001

          k =-0.4375 0.4375 0.4375 (  2965 PWs)   bands (ev):

   -14.6547 -14.6547 -14.6037 -14.5286 -14.5286 -14.3761 -14.3761 -14.3499
   -14.2801 -14.2801  -1.8210   1.0784   5.9593   5.9593

          k = 0.4375-0.4375 1.3125 (  2958 PWs)   bands (ev):

   -14.6683 -14.6594 -14.5836 -14.5200 -14.5151 -14.3896 -14.3882 -14.3660
   -14.2742 -14.2659  -1.5974   0.8769   4.8969   5.7654

     highest occupied level (ev):     6.9536

!    total energy              =    -318.48979594 Ry
     Harris-Foulkes estimate   =    -318.48979594 Ry
     estimated scf accuracy    <          2.5E-09 Ry

     The total energy is the sum of the following terms:

     one-electron contribution =    -162.10395697 Ry
     hartree contribution      =      97.56639567 Ry
     xc contribution           =     -85.96298776 Ry
     ewald contribution        =    -167.98924688 Ry

     convergence has been achieved in   7 iterations

     Writing output data file sn.alpha.12.57.save

     init_run     :      1.53s CPU      1.58s WALL (       1 calls)
     electrons    :     23.62s CPU     24.23s WALL (       1 calls)

     Called by init_run:
     wfcinit      :      1.05s CPU      1.08s WALL (       1 calls)
     potinit      :      0.06s CPU      0.06s WALL (       1 calls)

     Called by electrons:
     c_bands      :     19.15s CPU     19.53s WALL (       7 calls)
     sum_band     :      3.65s CPU      3.77s WALL (       7 calls)
     v_of_rho     :      0.36s CPU      0.37s WALL (       8 calls)
     newd         :      0.50s CPU      0.58s WALL (       8 calls)
     mix_rho      :      0.03s CPU      0.03s WALL (       7 calls)

     Called by c_bands:
     init_us_2    :      0.37s CPU      0.38s WALL (     900 calls)
     cegterg      :     18.45s CPU     18.81s WALL (     420 calls)

     Called by sum_band:
     sum_band:bec :      0.00s CPU      0.00s WALL (     420 calls)
     addusdens    :      0.56s CPU      0.64s WALL (       7 calls)

     Called by *egterg:
     h_psi        :     16.94s CPU     17.31s WALL (    1724 calls)
     s_psi        :      0.21s CPU      0.21s WALL (    1724 calls)
     g_psi        :      0.08s CPU      0.08s WALL (    1244 calls)
     cdiaghg      :      0.73s CPU      0.73s WALL (    1664 calls)

     Called by h_psi:
     h_psi:pot    :     16.85s CPU     17.22s WALL (    1724 calls)
     h_psi:calbec :      0.49s CPU      0.50s WALL (    1724 calls)
     vloc_psi     :     16.09s CPU     16.44s WALL (    1724 calls)
     add_vuspsi   :      0.27s CPU      0.27s WALL (    1724 calls)

     General routines
     calbec       :      0.60s CPU      0.61s WALL (    2144 calls)
     fft          :      0.17s CPU      0.18s WALL (     124 calls)
     ffts         :      0.01s CPU      0.01s WALL (      15 calls)
     fftw         :     15.85s CPU     16.25s WALL (   45578 calls)
     interpolate  :      0.04s CPU      0.04s WALL (      15 calls)
     davcio       :      0.00s CPU      0.00s WALL (      60 calls)

     Parallel routines
     fft_scatter  :      2.07s CPU      2.04s WALL (   45717 calls)

     PWSCF        :    25.30s CPU        27.02s WALL


   This run was terminated on:  16:13: 4  11Nov2017            

=------------------------------------------------------------------------------=
   JOB DONE.
=------------------------------------------------------------------------------=
