
     Program PWSCF v.6.1 (svn rev. 13369) starts on 13Nov2017 at 10:18:15 

     This program is part of the open-source Quantum ESPRESSO suite
     for quantum simulation of materials; please cite
         "P. Giannozzi et al., J. Phys.:Condens. Matter 21 395502 (2009);
          URL http://www.quantum-espresso.org", 
     in publications or presentations arising from this work. More details at
     http://www.quantum-espresso.org/quote

     Parallel version (MPI), running on     4 processors
     R & G space division:  proc/nbgrp/npool/nimage =       4
     Waiting for input...
     Reading input from standard input

     Current dimensions of program PWSCF are:
     Max number of different atomic species (ntypx) = 10
     Max number of k-points (npk) =  40000
     Max angular momentum in pseudopotentials (lmaxx) =  3

     Subspace diagonalization in iterative solution of the eigenvalue problem:
     a serial algorithm will be used


     Parallelization info
     --------------------
     sticks:   dense  smooth     PW     G-vecs:    dense   smooth      PW
     Min        1107     441    185                15063     3782    1033
     Max        1108     442    186                15064     3783    1034
     Sum        4429    1765    741                60253    15129    4133



     bravais-lattice index     =            0
     lattice parameter (alat)  =      10.7000  a.u.
     unit-cell volume          =     318.3092 (a.u.)^3
     number of atoms/cell      =            2
     number of atomic types    =            1
     number of electrons       =        28.00
     number of Kohn-Sham states=           18
     kinetic-energy cutoff     =      50.0000  Ry
     charge density cutoff     =     500.0000  Ry
     convergence threshold     =      1.0E-08
     mixing beta               =       0.7000
     number of iterations used =            8  plain     mixing
     Exchange-correlation      =  SLA  PW   PBX  PBC ( 1  4  3  4 0 0)

     celldm(1)=  10.700000  celldm(2)=   0.000000  celldm(3)=   0.000000
     celldm(4)=   0.000000  celldm(5)=   0.000000  celldm(6)=   0.000000

     crystal axes: (cart. coord. in units of alat)
               a(1) = (   0.986837   0.000000   0.000000 )  
               a(2) = (   0.000000   0.986837   0.000000 )  
               a(3) = (   0.493419   0.493419   0.266813 )  

     reciprocal axes: (cart. coord. in units 2 pi/alat)
               b(1) = (  1.013339  0.000000 -1.873974 )  
               b(2) = (  0.000000  1.013339 -1.873974 )  
               b(3) = (  0.000000  0.000000  3.747943 )  


     PseudoPot. # 1 for Sn read from file:
     /home/s1333534/quantum_espresso/qe-6.1/pseudo/sn_pbe_v1.4.uspp.F.UPF
     MD5 check sum: 469debedee59599fedebd795477fea03
     Pseudo is Ultrasoft + core correction, Zval = 14.0
     Generated by new atomic code, or converted to UPF format
     Using radial grid of  891 points,  6 beta functions with: 
                l(1) =   0
                l(2) =   0
                l(3) =   1
                l(4) =   1
                l(5) =   2
                l(6) =   2
     Q(r) pseudized with  8 coefficients,  rinner =    1.350   1.350   1.350
                                                       1.350   1.350

     atomic species   valence    mass     pseudopotential
        Sn            14.00   118.71000     Sn( 1.00)

     No symmetry found



   Cartesian axes

     site n.     atom                  positions (alat units)
         1           Sn  tau(   1) = (   1.0725850   1.3160481   0.0533919  )
         2           Sn  tau(   2) = (   0.5198369   0.2763739   0.0177973  )

     number of k points=   800  Marzari-Vanderbilt smearing, width (Ry)=  0.0200

     Number of k-points >= 100: set verbosity='high' to print them.

     Dense  grid:    60253 G-vectors     FFT dimensions: (  75,  75,  60)

     Smooth grid:    15129 G-vectors     FFT dimensions: (  48,  48,  36)

     Estimated max dynamical RAM per process >     117.71MB

     Estimated total allocated dynamical RAM >     470.86MB

     Initial potential from superposition of free atoms

     starting charge   25.99991, renormalised to   28.00000
     Starting wfc are   18 randomized atomic wfcs

     total cpu time spent up to now is       14.1 secs

     per-process dynamical memory:   133.2 Mb

     Self-consistent Calculation

     iteration #  1     ecut=    50.00 Ry     beta=0.70
     Davidson diagonalization with overlap
     ethr =  1.00E-02,  avg # of iterations =  4.1

     total cpu time spent up to now is       69.0 secs

     total energy              =    -317.49195021 Ry
     Harris-Foulkes estimate   =    -319.38494717 Ry
     estimated scf accuracy    <       2.32058587 Ry

     iteration #  2     ecut=    50.00 Ry     beta=0.70
     Davidson diagonalization with overlap
     ethr =  8.29E-03,  avg # of iterations =  2.4

     total cpu time spent up to now is      114.1 secs

     total energy              =    -318.31058823 Ry
     Harris-Foulkes estimate   =    -318.59423478 Ry
     estimated scf accuracy    <       0.41762362 Ry

     iteration #  3     ecut=    50.00 Ry     beta=0.70
     Davidson diagonalization with overlap
     ethr =  1.49E-03,  avg # of iterations =  2.0

     total cpu time spent up to now is      158.2 secs

     total energy              =    -318.39704475 Ry
     Harris-Foulkes estimate   =    -318.39863126 Ry
     estimated scf accuracy    <       0.00270747 Ry

     iteration #  4     ecut=    50.00 Ry     beta=0.70
     Davidson diagonalization with overlap
     ethr =  9.67E-06,  avg # of iterations =  3.7

     total cpu time spent up to now is      210.7 secs

     total energy              =    -318.39763188 Ry
     Harris-Foulkes estimate   =    -318.39777351 Ry
     estimated scf accuracy    <       0.00028561 Ry

     iteration #  5     ecut=    50.00 Ry     beta=0.70
     Davidson diagonalization with overlap
     ethr =  1.02E-06,  avg # of iterations =  2.6

     total cpu time spent up to now is      250.5 secs

     total energy              =    -318.39767667 Ry
     Harris-Foulkes estimate   =    -318.39768613 Ry
     estimated scf accuracy    <       0.00001675 Ry

     iteration #  6     ecut=    50.00 Ry     beta=0.70
     Davidson diagonalization with overlap
     ethr =  5.98E-08,  avg # of iterations =  3.0

     total cpu time spent up to now is      299.9 secs

     total energy              =    -318.39768262 Ry
     Harris-Foulkes estimate   =    -318.39768304 Ry
     estimated scf accuracy    <       0.00000083 Ry

     iteration #  7     ecut=    50.00 Ry     beta=0.70
     Davidson diagonalization with overlap
     ethr =  2.97E-09,  avg # of iterations =  3.0

     total cpu time spent up to now is      347.4 secs

     total energy              =    -318.39768278 Ry
     Harris-Foulkes estimate   =    -318.39768289 Ry
     estimated scf accuracy    <       0.00000016 Ry

     iteration #  8     ecut=    50.00 Ry     beta=0.70
     Davidson diagonalization with overlap
     ethr =  5.76E-10,  avg # of iterations =  2.1

     total cpu time spent up to now is      392.0 secs

     End of self-consistent calculation

     Number of k-points >= 100: set verbosity='high' to print the bands.

     the Fermi energy is    13.0623 ev

!    total energy              =    -318.39768282 Ry
     Harris-Foulkes estimate   =    -318.39768282 Ry
     estimated scf accuracy    <          2.8E-09 Ry

     The total energy is the sum of the following terms:

     one-electron contribution =    -101.48373608 Ry
     hartree contribution      =      73.31495014 Ry
     xc contribution           =     -86.25239212 Ry
     ewald contribution        =    -203.97651537 Ry
     smearing contrib. (-TS)   =       0.00001061 Ry

     convergence has been achieved in   8 iterations

     Writing output data file sn.beta.10.70.save

     init_run     :     13.57s CPU     14.04s WALL (       1 calls)
     electrons    :    366.42s CPU    377.94s WALL (       1 calls)

     Called by init_run:
     wfcinit      :     12.59s CPU     13.04s WALL (       1 calls)
     potinit      :      0.26s CPU      0.27s WALL (       1 calls)

     Called by electrons:
     c_bands      :    302.13s CPU    311.58s WALL (       8 calls)
     sum_band     :     62.80s CPU     64.73s WALL (       8 calls)
     v_of_rho     :      0.75s CPU      0.79s WALL (       9 calls)
     newd         :      0.77s CPU      0.82s WALL (       9 calls)
     mix_rho      :      0.07s CPU      0.07s WALL (       8 calls)

     Called by c_bands:
     init_us_2    :      3.63s CPU      3.71s WALL (   13600 calls)
     cegterg      :    294.53s CPU    303.82s WALL (    6400 calls)

     Called by sum_band:
     sum_band:bec :      0.06s CPU      0.09s WALL (    6400 calls)
     addusdens    :      0.84s CPU      0.96s WALL (       8 calls)

     Called by *egterg:
     h_psi        :    266.33s CPU    275.34s WALL (   25510 calls)
     s_psi        :      2.69s CPU      2.72s WALL (   25510 calls)
     g_psi        :      0.85s CPU      0.87s WALL (   18310 calls)
     cdiaghg      :     16.13s CPU     16.34s WALL (   24710 calls)

     Called by h_psi:
     h_psi:pot    :    264.55s CPU    273.51s WALL (   25510 calls)
     h_psi:calbec :      6.47s CPU      6.64s WALL (   25510 calls)
     vloc_psi     :    253.92s CPU    262.53s WALL (   25510 calls)
     add_vuspsi   :      4.15s CPU      4.24s WALL (   25510 calls)

     General routines
     calbec       :      8.35s CPU      8.53s WALL (   31910 calls)
     fft          :      0.51s CPU      0.54s WALL (     140 calls)
     ffts         :      0.01s CPU      0.01s WALL (      17 calls)
     fftw         :    202.17s CPU    208.95s WALL (  804304 calls)
     interpolate  :      0.08s CPU      0.09s WALL (      17 calls)
     davcio       :      0.01s CPU      0.04s WALL (     800 calls)

     Parallel routines
     fft_scatter  :     51.77s CPU     53.09s WALL (  804461 calls)

     PWSCF        :  6m21.02s CPU     6m45.80s WALL


   This run was terminated on:  10:25: 0  13Nov2017            

=------------------------------------------------------------------------------=
   JOB DONE.
=------------------------------------------------------------------------------=
