
     Program PWSCF v.6.1 (svn rev. 13369) starts on 13Nov2017 at 10:24:26 

     This program is part of the open-source Quantum ESPRESSO suite
     for quantum simulation of materials; please cite
         "P. Giannozzi et al., J. Phys.:Condens. Matter 21 395502 (2009);
          URL http://www.quantum-espresso.org", 
     in publications or presentations arising from this work. More details at
     http://www.quantum-espresso.org/quote

     Parallel version (MPI), running on     4 processors
     R & G space division:  proc/nbgrp/npool/nimage =       4
     Waiting for input...
     Reading input from standard input

     Current dimensions of program PWSCF are:
     Max number of different atomic species (ntypx) = 10
     Max number of k-points (npk) =  40000
     Max angular momentum in pseudopotentials (lmaxx) =  3

     Subspace diagonalization in iterative solution of the eigenvalue problem:
     a serial algorithm will be used


     Parallelization info
     --------------------
     sticks:   dense  smooth     PW     G-vecs:    dense   smooth      PW
     Min        1206     481    198                17021     4304    1112
     Max        1207     482    199                17022     4305    1113
     Sum        4825    1925    793                68085    17217    4449



     bravais-lattice index     =            0
     lattice parameter (alat)  =      11.1500  a.u.
     unit-cell volume          =     360.1824 (a.u.)^3
     number of atoms/cell      =            2
     number of atomic types    =            1
     number of electrons       =        28.00
     number of Kohn-Sham states=           18
     kinetic-energy cutoff     =      50.0000  Ry
     charge density cutoff     =     500.0000  Ry
     convergence threshold     =      1.0E-08
     mixing beta               =       0.7000
     number of iterations used =            8  plain     mixing
     Exchange-correlation      =  SLA  PW   PBX  PBC ( 1  4  3  4 0 0)

     celldm(1)=  11.150000  celldm(2)=   0.000000  celldm(3)=   0.000000
     celldm(4)=   0.000000  celldm(5)=   0.000000  celldm(6)=   0.000000

     crystal axes: (cart. coord. in units of alat)
               a(1) = (   0.986837   0.000000   0.000000 )  
               a(2) = (   0.000000   0.986837   0.000000 )  
               a(3) = (   0.493419   0.493419   0.266813 )  

     reciprocal axes: (cart. coord. in units 2 pi/alat)
               b(1) = (  1.013339  0.000000 -1.873974 )  
               b(2) = (  0.000000  1.013339 -1.873974 )  
               b(3) = (  0.000000  0.000000  3.747943 )  


     PseudoPot. # 1 for Sn read from file:
     /home/s1333534/quantum_espresso/qe-6.1/pseudo/sn_pbe_v1.4.uspp.F.UPF
     MD5 check sum: 469debedee59599fedebd795477fea03
     Pseudo is Ultrasoft + core correction, Zval = 14.0
     Generated by new atomic code, or converted to UPF format
     Using radial grid of  891 points,  6 beta functions with: 
                l(1) =   0
                l(2) =   0
                l(3) =   1
                l(4) =   1
                l(5) =   2
                l(6) =   2
     Q(r) pseudized with  8 coefficients,  rinner =    1.350   1.350   1.350
                                                       1.350   1.350

     atomic species   valence    mass     pseudopotential
        Sn            14.00   118.71000     Sn( 1.00)

     No symmetry found



   Cartesian axes

     site n.     atom                  positions (alat units)
         1           Sn  tau(   1) = (   1.0725850   1.3160481   0.0533919  )
         2           Sn  tau(   2) = (   0.5198369   0.2763739   0.0177973  )

     number of k points=   800  Marzari-Vanderbilt smearing, width (Ry)=  0.0200

     Number of k-points >= 100: set verbosity='high' to print them.

     Dense  grid:    68085 G-vectors     FFT dimensions: (  80,  80,  60)

     Smooth grid:    17217 G-vectors     FFT dimensions: (  50,  50,  40)

     Estimated max dynamical RAM per process >     133.10MB

     Estimated total allocated dynamical RAM >     532.38MB

     Initial potential from superposition of free atoms

     starting charge   25.99991, renormalised to   28.00000
     Starting wfc are   18 randomized atomic wfcs

     total cpu time spent up to now is       21.0 secs

     per-process dynamical memory:   141.4 Mb

     Self-consistent Calculation

     iteration #  1     ecut=    50.00 Ry     beta=0.70
     Davidson diagonalization with overlap
     ethr =  1.00E-02,  avg # of iterations =  4.0

     total cpu time spent up to now is      106.9 secs

     total energy              =    -317.50215206 Ry
     Harris-Foulkes estimate   =    -319.45606880 Ry
     estimated scf accuracy    <       2.39282901 Ry

     iteration #  2     ecut=    50.00 Ry     beta=0.70
     Davidson diagonalization with overlap
     ethr =  8.55E-03,  avg # of iterations =  2.5

     total cpu time spent up to now is      178.3 secs

     total energy              =    -318.34819835 Ry
     Harris-Foulkes estimate   =    -318.64458708 Ry
     estimated scf accuracy    <       0.43612422 Ry

     iteration #  3     ecut=    50.00 Ry     beta=0.70
     Davidson diagonalization with overlap
     ethr =  1.56E-03,  avg # of iterations =  2.0

     total cpu time spent up to now is      250.3 secs

     total energy              =    -318.43856859 Ry
     Harris-Foulkes estimate   =    -318.44028058 Ry
     estimated scf accuracy    <       0.00289606 Ry

     iteration #  4     ecut=    50.00 Ry     beta=0.70
     Davidson diagonalization with overlap
     ethr =  1.03E-05,  avg # of iterations =  3.6

     total cpu time spent up to now is      328.3 secs

     total energy              =    -318.43918264 Ry
     Harris-Foulkes estimate   =    -318.43934488 Ry
     estimated scf accuracy    <       0.00032361 Ry

     iteration #  5     ecut=    50.00 Ry     beta=0.70
     Davidson diagonalization with overlap
     ethr =  1.16E-06,  avg # of iterations =  2.6

     total cpu time spent up to now is      389.4 secs

     total energy              =    -318.43923398 Ry
     Harris-Foulkes estimate   =    -318.43924427 Ry
     estimated scf accuracy    <       0.00001795 Ry

     iteration #  6     ecut=    50.00 Ry     beta=0.70
     Davidson diagonalization with overlap
     ethr =  6.41E-08,  avg # of iterations =  3.0

     total cpu time spent up to now is      464.9 secs

     total energy              =    -318.43924078 Ry
     Harris-Foulkes estimate   =    -318.43924122 Ry
     estimated scf accuracy    <       0.00000093 Ry

     iteration #  7     ecut=    50.00 Ry     beta=0.70
     Davidson diagonalization with overlap
     ethr =  3.32E-09,  avg # of iterations =  2.8

     total cpu time spent up to now is      533.4 secs

     total energy              =    -318.43924092 Ry
     Harris-Foulkes estimate   =    -318.43924104 Ry
     estimated scf accuracy    <       0.00000017 Ry

     iteration #  8     ecut=    50.00 Ry     beta=0.70
     Davidson diagonalization with overlap
     ethr =  6.21E-10,  avg # of iterations =  3.0

     total cpu time spent up to now is      606.5 secs

     End of self-consistent calculation

     Number of k-points >= 100: set verbosity='high' to print the bands.

     the Fermi energy is    11.0260 ev

!    total energy              =    -318.43924098 Ry
     Harris-Foulkes estimate   =    -318.43924098 Ry
     estimated scf accuracy    <          6.0E-09 Ry

     The total energy is the sum of the following terms:

     one-electron contribution =    -114.45650013 Ry
     hartree contribution      =      77.85605169 Ry
     xc contribution           =     -86.09453791 Ry
     ewald contribution        =    -195.74427932 Ry
     smearing contrib. (-TS)   =       0.00002469 Ry

     convergence has been achieved in   8 iterations

     Writing output data file sn.beta.11.15.save

     init_run     :     20.05s CPU     20.90s WALL (       1 calls)
     electrons    :    567.55s CPU    585.63s WALL (       1 calls)

     Called by init_run:
     wfcinit      :     18.97s CPU     19.78s WALL (       1 calls)
     potinit      :      0.29s CPU      0.30s WALL (       1 calls)

     Called by electrons:
     c_bands      :    466.87s CPU    482.14s WALL (       8 calls)
     sum_band     :     98.95s CPU    101.56s WALL (       8 calls)
     v_of_rho     :      0.87s CPU      0.92s WALL (       9 calls)
     newd         :      0.88s CPU      0.95s WALL (       9 calls)
     mix_rho      :      0.09s CPU      0.09s WALL (       8 calls)

     Called by c_bands:
     init_us_2    :      4.07s CPU      4.19s WALL (   13600 calls)
     cegterg      :    458.70s CPU    473.69s WALL (    6400 calls)

     Called by sum_band:
     sum_band:bec :      0.07s CPU      0.10s WALL (    6400 calls)
     addusdens    :      0.99s CPU      1.13s WALL (       8 calls)

     Called by *egterg:
     h_psi        :    431.77s CPU    446.24s WALL (   26027 calls)
     s_psi        :      3.24s CPU      3.29s WALL (   26027 calls)
     g_psi        :      0.90s CPU      0.92s WALL (   18827 calls)
     cdiaghg      :     16.77s CPU     17.13s WALL (   25227 calls)

     Called by h_psi:
     h_psi:pot    :    429.90s CPU    444.29s WALL (   26027 calls)
     h_psi:calbec :      7.54s CPU      7.79s WALL (   26027 calls)
     vloc_psi     :    417.66s CPU    431.60s WALL (   26027 calls)
     add_vuspsi   :      4.68s CPU      4.80s WALL (   26027 calls)

     General routines
     calbec       :      9.76s CPU     10.05s WALL (   32427 calls)
     fft          :      0.61s CPU      0.65s WALL (     140 calls)
     ffts         :      0.01s CPU      0.01s WALL (      17 calls)
     fftw         :    339.77s CPU    351.54s WALL (  802590 calls)
     interpolate  :      0.10s CPU      0.11s WALL (      17 calls)
     davcio       :      0.02s CPU      0.04s WALL (     800 calls)

     Parallel routines
     fft_scatter  :     70.57s CPU     74.06s WALL (  802747 calls)

     PWSCF        :  9m48.76s CPU    10m21.07s WALL


   This run was terminated on:  10:34:47  13Nov2017            

=------------------------------------------------------------------------------=
   JOB DONE.
=------------------------------------------------------------------------------=
