
     Program PWSCF v.6.1 (svn rev. 13369) starts on 12Nov2017 at 13: 2:13 

     This program is part of the open-source Quantum ESPRESSO suite
     for quantum simulation of materials; please cite
         "P. Giannozzi et al., J. Phys.:Condens. Matter 21 395502 (2009);
          URL http://www.quantum-espresso.org", 
     in publications or presentations arising from this work. More details at
     http://www.quantum-espresso.org/quote

     Parallel version (MPI), running on     4 processors
     R & G space division:  proc/nbgrp/npool/nimage =       4
     Waiting for input...
     Reading input from standard input
     Message from routine read_cards :
     DEPRECATED: no units specified in ATOMIC_POSITIONS card
     Message from routine read_cards :
     ATOMIC_POSITIONS: units set to alat

     Current dimensions of program PWSCF are:
     Max number of different atomic species (ntypx) = 10
     Max number of k-points (npk) =  40000
     Max angular momentum in pseudopotentials (lmaxx) =  3

     Subspace diagonalization in iterative solution of the eigenvalue problem:
     a serial algorithm will be used


     Parallelization info
     --------------------
     sticks:   dense  smooth     PW     G-vecs:    dense   smooth      PW
     Min         823     412    124                31341    11092    1779
     Max         824     413    126                31345    11095    1781
     Sum        3295    1651    499               125373    44375    7119



     bravais-lattice index     =            2
     lattice parameter (alat)  =      12.5650  a.u.
     unit-cell volume          =     495.9381 (a.u.)^3
     number of atoms/cell      =            2
     number of atomic types    =            1
     number of electrons       =        28.00
     number of Kohn-Sham states=           14
     kinetic-energy cutoff     =      76.0000  Ry
     charge density cutoff     =     608.0000  Ry
     convergence threshold     =      1.0E-08
     mixing beta               =       0.7000
     number of iterations used =            8  plain     mixing
     Exchange-correlation      =  SLA  PW   PBX  PBC ( 1  4  3  4 0 0)

     celldm(1)=  12.565000  celldm(2)=   0.000000  celldm(3)=   0.000000
     celldm(4)=   0.000000  celldm(5)=   0.000000  celldm(6)=   0.000000

     crystal axes: (cart. coord. in units of alat)
               a(1) = (  -0.500000   0.000000   0.500000 )  
               a(2) = (   0.000000   0.500000   0.500000 )  
               a(3) = (  -0.500000   0.500000   0.000000 )  

     reciprocal axes: (cart. coord. in units 2 pi/alat)
               b(1) = ( -1.000000 -1.000000  1.000000 )  
               b(2) = (  1.000000  1.000000  1.000000 )  
               b(3) = ( -1.000000  1.000000 -1.000000 )  


     PseudoPot. # 1 for Sn read from file:
     /home/s1333534/quantum_espresso/qe-6.1/pseudo/sn_pbe_v1.4.uspp.F.UPF
     MD5 check sum: 469debedee59599fedebd795477fea03
     Pseudo is Ultrasoft + core correction, Zval = 14.0
     Generated by new atomic code, or converted to UPF format
     Using radial grid of  891 points,  6 beta functions with: 
                l(1) =   0
                l(2) =   0
                l(3) =   1
                l(4) =   1
                l(5) =   2
                l(6) =   2
     Q(r) pseudized with  8 coefficients,  rinner =    1.350   1.350   1.350
                                                       1.350   1.350

     atomic species   valence    mass     pseudopotential
        Sn            14.00   118.71000     Sn( 1.00)

     48 Sym. Ops., with inversion, found (24 have fractional translation)



   Cartesian axes

     site n.     atom                  positions (alat units)
         1           Sn  tau(   1) = (   0.0000000   0.0000000   0.0000000  )
         2           Sn  tau(   2) = (   0.2500000   0.2500000   0.2500000  )

     number of k points=    60
                       cart. coord. in units 2pi/alat
        k(    1) = (  -0.0625000   0.0625000   0.0625000), wk =   0.0078125
        k(    2) = (  -0.1875000   0.1875000  -0.0625000), wk =   0.0234375
        k(    3) = (  -0.3125000   0.3125000  -0.1875000), wk =   0.0234375
        k(    4) = (  -0.4375000   0.4375000  -0.3125000), wk =   0.0234375
        k(    5) = (   0.4375000  -0.4375000   0.5625000), wk =   0.0234375
        k(    6) = (   0.3125000  -0.3125000   0.4375000), wk =   0.0234375
        k(    7) = (   0.1875000  -0.1875000   0.3125000), wk =   0.0234375
        k(    8) = (   0.0625000  -0.0625000   0.1875000), wk =   0.0234375
        k(    9) = (  -0.0625000   0.3125000   0.0625000), wk =   0.0234375
        k(   10) = (  -0.1875000   0.4375000  -0.0625000), wk =   0.0468750
        k(   11) = (  -0.3125000   0.5625000  -0.1875000), wk =   0.0468750
        k(   12) = (   0.5625000  -0.3125000   0.6875000), wk =   0.0468750
        k(   13) = (   0.4375000  -0.1875000   0.5625000), wk =   0.0468750
        k(   14) = (   0.3125000  -0.0625000   0.4375000), wk =   0.0468750
        k(   15) = (   0.1875000   0.0625000   0.3125000), wk =   0.0468750
        k(   16) = (  -0.0625000   0.5625000   0.0625000), wk =   0.0234375
        k(   17) = (  -0.1875000   0.6875000  -0.0625000), wk =   0.0468750
        k(   18) = (   0.6875000  -0.1875000   0.8125000), wk =   0.0468750
        k(   19) = (   0.5625000  -0.0625000   0.6875000), wk =   0.0468750
        k(   20) = (   0.4375000   0.0625000   0.5625000), wk =   0.0468750
        k(   21) = (   0.3125000   0.1875000   0.4375000), wk =   0.0468750
        k(   22) = (  -0.0625000   0.8125000   0.0625000), wk =   0.0234375
        k(   23) = (   0.8125000  -0.0625000   0.9375000), wk =   0.0468750
        k(   24) = (   0.6875000   0.0625000   0.8125000), wk =   0.0468750
        k(   25) = (   0.5625000   0.1875000   0.6875000), wk =   0.0468750
        k(   26) = (   0.4375000   0.3125000   0.5625000), wk =   0.0468750
        k(   27) = (  -0.0625000  -0.9375000   0.0625000), wk =   0.0234375
        k(   28) = (  -0.1875000  -0.8125000  -0.0625000), wk =   0.0468750
        k(   29) = (  -0.3125000  -0.6875000  -0.1875000), wk =   0.0468750
        k(   30) = (  -0.0625000  -0.6875000   0.0625000), wk =   0.0234375
        k(   31) = (  -0.1875000  -0.5625000  -0.0625000), wk =   0.0468750
        k(   32) = (  -0.0625000  -0.4375000   0.0625000), wk =   0.0234375
        k(   33) = (  -0.1875000   0.1875000   0.1875000), wk =   0.0078125
        k(   34) = (  -0.3125000   0.3125000   0.0625000), wk =   0.0234375
        k(   35) = (  -0.4375000   0.4375000  -0.0625000), wk =   0.0234375
        k(   36) = (   0.4375000  -0.4375000   0.8125000), wk =   0.0234375
        k(   37) = (   0.3125000  -0.3125000   0.6875000), wk =   0.0234375
        k(   38) = (   0.1875000  -0.1875000   0.5625000), wk =   0.0234375
        k(   39) = (  -0.1875000   0.4375000   0.1875000), wk =   0.0234375
        k(   40) = (  -0.3125000   0.5625000   0.0625000), wk =   0.0468750
        k(   41) = (   0.5625000  -0.3125000   0.9375000), wk =   0.0468750
        k(   42) = (   0.4375000  -0.1875000   0.8125000), wk =   0.0468750
        k(   43) = (   0.3125000  -0.0625000   0.6875000), wk =   0.0468750
        k(   44) = (  -0.1875000   0.6875000   0.1875000), wk =   0.0234375
        k(   45) = (   0.6875000  -0.1875000   1.0625000), wk =   0.0468750
        k(   46) = (   0.5625000  -0.0625000   0.9375000), wk =   0.0468750
        k(   47) = (   0.4375000   0.0625000   0.8125000), wk =   0.0468750
        k(   48) = (  -0.1875000  -1.0625000   0.1875000), wk =   0.0234375
        k(   49) = (  -0.3125000  -0.9375000   0.0625000), wk =   0.0468750
        k(   50) = (  -0.1875000  -0.8125000   0.1875000), wk =   0.0234375
        k(   51) = (  -0.3125000   0.3125000   0.3125000), wk =   0.0078125
        k(   52) = (  -0.4375000   0.4375000   0.1875000), wk =   0.0234375
        k(   53) = (   0.4375000  -0.4375000   1.0625000), wk =   0.0234375
        k(   54) = (   0.3125000  -0.3125000   0.9375000), wk =   0.0234375
        k(   55) = (  -0.3125000   0.5625000   0.3125000), wk =   0.0234375
        k(   56) = (   0.5625000  -0.3125000   1.1875000), wk =   0.0468750
        k(   57) = (   0.4375000  -0.1875000   1.0625000), wk =   0.0468750
        k(   58) = (  -0.3125000  -1.1875000   0.3125000), wk =   0.0234375
        k(   59) = (  -0.4375000   0.4375000   0.4375000), wk =   0.0078125
        k(   60) = (   0.4375000  -0.4375000   1.3125000), wk =   0.0234375

     Dense  grid:   125373 G-vectors     FFT dimensions: (  72,  72,  72)

     Smooth grid:    44375 G-vectors     FFT dimensions: (  50,  50,  50)

     Estimated max dynamical RAM per process >      40.12MB

     Estimated total allocated dynamical RAM >     160.47MB

     Initial potential from superposition of free atoms

     starting charge   25.99991, renormalised to   28.00000
     Starting wfc are   18 randomized atomic wfcs

     total cpu time spent up to now is        2.6 secs

     per-process dynamical memory:    41.7 Mb

     Self-consistent Calculation

     iteration #  1     ecut=    76.00 Ry     beta=0.70
     Davidson diagonalization with overlap
     ethr =  1.00E-02,  avg # of iterations =  2.5

     total cpu time spent up to now is        8.5 secs

     total energy              =    -317.49482476 Ry
     Harris-Foulkes estimate   =    -319.55814498 Ry
     estimated scf accuracy    <       2.51531543 Ry

     iteration #  2     ecut=    76.00 Ry     beta=0.70
     Davidson diagonalization with overlap
     ethr =  8.98E-03,  avg # of iterations =  3.0

     total cpu time spent up to now is       14.8 secs

     total energy              =    -318.40437299 Ry
     Harris-Foulkes estimate   =    -318.72267189 Ry
     estimated scf accuracy    <       0.47415317 Ry

     iteration #  3     ecut=    76.00 Ry     beta=0.70
     Davidson diagonalization with overlap
     ethr =  1.69E-03,  avg # of iterations =  2.0

     total cpu time spent up to now is       20.5 secs

     total energy              =    -318.49956534 Ry
     Harris-Foulkes estimate   =    -318.50109529 Ry
     estimated scf accuracy    <       0.00289224 Ry

     iteration #  4     ecut=    76.00 Ry     beta=0.70
     Davidson diagonalization with overlap
     ethr =  1.03E-05,  avg # of iterations =  3.0

     total cpu time spent up to now is       26.5 secs

     total energy              =    -318.50045453 Ry
     Harris-Foulkes estimate   =    -318.50056979 Ry
     estimated scf accuracy    <       0.00017482 Ry

     iteration #  5     ecut=    76.00 Ry     beta=0.70
     Davidson diagonalization with overlap
     ethr =  6.24E-07,  avg # of iterations =  3.0

     total cpu time spent up to now is       32.6 secs

     total energy              =    -318.50050874 Ry
     Harris-Foulkes estimate   =    -318.50050941 Ry
     estimated scf accuracy    <       0.00000175 Ry

     iteration #  6     ecut=    76.00 Ry     beta=0.70
     Davidson diagonalization with overlap
     ethr =  6.23E-09,  avg # of iterations =  3.8

     total cpu time spent up to now is       38.9 secs

     total energy              =    -318.50050955 Ry
     Harris-Foulkes estimate   =    -318.50050958 Ry
     estimated scf accuracy    <       0.00000008 Ry

     iteration #  7     ecut=    76.00 Ry     beta=0.70
     Davidson diagonalization with overlap
     ethr =  2.82E-10,  avg # of iterations =  3.2

     total cpu time spent up to now is       45.1 secs

     End of self-consistent calculation

          k =-0.0625 0.0625 0.0625 (  5595 PWs)   bands (ev):

   -14.6247 -14.6247 -14.6212 -14.5691 -14.5691 -14.3286 -14.3286 -14.3191
   -14.3073 -14.3073  -3.1478   5.4066   6.9676   6.9676

          k =-0.1875 0.1875-0.0625 (  5572 PWs)   bands (ev):

   -14.6365 -14.6316 -14.6177 -14.5581 -14.5513 -14.3516 -14.3424 -14.3169
   -14.3017 -14.2892  -2.9626   4.2353   6.2875   6.8302

          k =-0.3125 0.3125-0.1875 (  5555 PWs)   bands (ev):

   -14.6477 -14.6446 -14.6066 -14.5404 -14.5307 -14.3700 -14.3583 -14.3322
   -14.2846 -14.2772  -2.5222   2.6671   5.7943   6.4077

          k =-0.4375 0.4375-0.3125 (  5552 PWs)   bands (ev):

   -14.6532 -14.6527 -14.5960 -14.5273 -14.5200 -14.3774 -14.3682 -14.3474
   -14.2736 -14.2721  -1.9411   1.3657   5.5484   6.0489

          k = 0.4375-0.4375 0.5625 (  5547 PWs)   bands (ev):

   -14.6564 -14.6525 -14.5932 -14.5210 -14.5203 -14.3764 -14.3740 -14.3506
   -14.2731 -14.2692  -1.6838   0.9219   5.5481   5.8754

          k = 0.3125-0.3125 0.4375 (  5551 PWs)   bands (ev):

   -14.6537 -14.6482 -14.6003 -14.5304 -14.5218 -14.3794 -14.3643 -14.3405
   -14.2789 -14.2715  -2.1332   1.7411   5.7776   5.9250

          k = 0.1875-0.1875 0.3125 (  5558 PWs)   bands (ev):

   -14.6447 -14.6395 -14.6121 -14.5464 -14.5355 -14.3698 -14.3490 -14.3260
   -14.2899 -14.2809  -2.6932   3.1829   6.1944   6.1951

          k = 0.0625-0.0625 0.1875 (  5590 PWs)   bands (ev):

   -14.6306 -14.6278 -14.6217 -14.5648 -14.5566 -14.3497 -14.3291 -14.3157
   -14.3066 -14.2959  -3.0545   4.7489   6.6222   6.6551

          k =-0.0625 0.3125 0.0625 (  5560 PWs)   bands (ev):

   -14.6370 -14.6335 -14.6232 -14.5558 -14.5360 -14.3765 -14.3348 -14.3087
   -14.3010 -14.2891  -2.8686   3.9461   6.1520   6.1673

          k =-0.1875 0.4375-0.0625 (  5546 PWs)   bands (ev):

   -14.6499 -14.6449 -14.6105 -14.5398 -14.5124 -14.4016 -14.3515 -14.3193
   -14.2862 -14.2757  -2.5080   2.8394   5.3807   5.9294

          k =-0.3125 0.5625-0.1875 (  5544 PWs)   bands (ev):

   -14.6640 -14.6536 -14.5884 -14.5220 -14.4984 -14.4123 -14.3702 -14.3449
   -14.2728 -14.2610  -1.9465   1.5989   4.8733   5.6294

          k = 0.5625-0.3125 0.6875 (  5546 PWs)   bands (ev):

   -14.6704 -14.6579 -14.5730 -14.5087 -14.5014 -14.4029 -14.3874 -14.3633
   -14.2663 -14.2541  -1.4896   0.8380   4.6119   5.5626

          k = 0.4375-0.1875 0.5625 (  5540 PWs)   bands (ev):

   -14.6668 -14.6580 -14.5762 -14.5199 -14.5000 -14.4021 -14.3746 -14.3641
   -14.2661 -14.2587  -1.7581   1.2643   4.6155   5.7696

          k = 0.3125-0.0625 0.4375 (  5544 PWs)   bands (ev):

   -14.6547 -14.6522 -14.5957 -14.5359 -14.5120 -14.3947 -14.3604 -14.3380
   -14.2770 -14.2697  -2.3424   2.4078   4.9718   6.1572

          k = 0.1875 0.0625 0.3125 (  5567 PWs)   bands (ev):

   -14.6431 -14.6376 -14.6146 -14.5509 -14.5351 -14.3733 -14.3449 -14.3176
   -14.2959 -14.2819  -2.7797   3.5572   5.8263   6.4499

          k =-0.0625 0.5625 0.0625 (  5541 PWs)   bands (ev):

   -14.6518 -14.6491 -14.6146 -14.5247 -14.4820 -14.4389 -14.3636 -14.3088
   -14.2798 -14.2759  -2.2269   2.3020   5.2632   5.3515

          k =-0.1875 0.6875-0.0625 (  5555 PWs)   bands (ev):

   -14.6641 -14.6588 -14.5905 -14.5039 -14.4643 -14.4574 -14.3849 -14.3352
   -14.2663 -14.2606  -1.7131   1.3939   4.6988   5.0900

          k = 0.6875-0.1875 0.8125 (  5549 PWs)   bands (ev):

   -14.6782 -14.6635 -14.5603 -14.4840 -14.4671 -14.4516 -14.4080 -14.3668
   -14.2594 -14.2448  -1.1400   0.5944   4.1222   5.0592

          k = 0.5625-0.0625 0.6875 (  5546 PWs)   bands (ev):

   -14.6807 -14.6647 -14.5519 -14.4892 -14.4709 -14.4345 -14.4153 -14.3765
   -14.2577 -14.2427  -1.2041   0.6760   3.9093   5.3121

          k = 0.4375 0.0625 0.5625 (  5546 PWs)   bands (ev):

   -14.6697 -14.6608 -14.5694 -14.5192 -14.4903 -14.4130 -14.3758 -14.3700
   -14.2622 -14.2562  -1.7864   1.4320   4.2892   5.7459

          k = 0.3125 0.1875 0.4375 (  5539 PWs)   bands (ev):

   -14.6549 -14.6489 -14.5986 -14.5338 -14.5168 -14.3881 -14.3610 -14.3382
   -14.2792 -14.2701  -2.2709   2.1279   5.3380   6.0637

          k =-0.0625 0.8125 0.0625 (  5552 PWs)   bands (ev):

   -14.6638 -14.6614 -14.5841 -14.5039 -14.4807 -14.4215 -14.4066 -14.3408
   -14.2617 -14.2594  -1.2490   0.7396   4.7315   4.8570

          k = 0.8125-0.0625 0.9375 (  5548 PWs)   bands (ev):

   -14.6720 -14.6665 -14.5522 -14.5220 -14.4568 -14.4315 -14.4028 -14.3733
   -14.2554 -14.2501  -0.6298   0.0215   4.3893   4.7084

          k = 0.6875 0.0625 0.8125 (  5541 PWs)   bands (ev):

   -14.6814 -14.6662 -14.5478 -14.4813 -14.4625 -14.4399 -14.4291 -14.3778
   -14.2558 -14.2410  -0.7616   0.1859   3.9464   4.9468

          k = 0.5625 0.1875 0.6875 (  5541 PWs)   bands (ev):

   -14.6771 -14.6621 -14.5602 -14.4971 -14.4858 -14.4205 -14.4027 -14.3713
   -14.2610 -14.2467  -1.3059   0.7184   4.1694   5.3958

          k = 0.4375 0.3125 0.5625 (  5544 PWs)   bands (ev):

   -14.6617 -14.6543 -14.5860 -14.5206 -14.5123 -14.3874 -14.3742 -14.3556
   -14.2710 -14.2636  -1.7157   1.0560   5.1173   5.8100

          k =-0.0625-0.9375 0.0625 (  5539 PWs)   bands (ev):

   -14.6665 -14.6642 -14.5613 -14.5338 -14.4561 -14.4310 -14.3922 -14.3644
   -14.2576 -14.2553  -0.6483   0.0195   4.6229   4.7554

          k =-0.1875-0.8125-0.0625 (  5550 PWs)   bands (ev):

   -14.6692 -14.6638 -14.5732 -14.4943 -14.4811 -14.4295 -14.4073 -14.3523
   -14.2593 -14.2538  -1.2019   0.6908   4.4937   4.8365

          k =-0.3125-0.6875-0.1875 (  5544 PWs)   bands (ev):

   -14.6722 -14.6589 -14.5753 -14.5047 -14.4782 -14.4372 -14.3871 -14.3544
   -14.2657 -14.2519  -1.5614   1.0859   4.4479   5.2862

          k =-0.0625-0.6875 0.0625 (  5548 PWs)   bands (ev):

   -14.6587 -14.6562 -14.6020 -14.5039 -14.4718 -14.4519 -14.3838 -14.3218
   -14.2695 -14.2667  -1.7776   1.5043   4.9466   5.0576

          k =-0.1875-0.5625-0.0625 (  5545 PWs)   bands (ev):

   -14.6572 -14.6522 -14.6029 -14.5239 -14.4862 -14.4322 -14.3657 -14.3241
   -14.2756 -14.2687  -2.1508   2.1140   4.9981   5.4607

          k =-0.0625-0.4375 0.0625 (  5555 PWs)   bands (ev):

   -14.6442 -14.6411 -14.6216 -14.5423 -14.5105 -14.4067 -14.3468 -14.3042
   -14.2911 -14.2841  -2.5919   3.1207   5.6715   5.7282

          k =-0.1875 0.1875 0.1875 (  5552 PWs)   bands (ev):

   -14.6372 -14.6372 -14.6151 -14.5503 -14.5503 -14.3495 -14.3495 -14.3263
   -14.2902 -14.2902  -2.8724   3.7851   6.5706   6.5706

          k =-0.3125 0.3125 0.0625 (  5556 PWs)   bands (ev):

   -14.6486 -14.6447 -14.6049 -14.5442 -14.5280 -14.3744 -14.3580 -14.3273
   -14.2875 -14.2753  -2.6033   3.0052   5.3876   6.5390

          k =-0.4375 0.4375-0.0625 (  5547 PWs)   bands (ev):

   -14.6617 -14.6572 -14.5813 -14.5304 -14.5046 -14.3954 -14.3687 -14.3570
   -14.2663 -14.2658  -2.0994   1.9244   4.5898   6.1204

          k = 0.4375-0.4375 0.8125 (  5556 PWs)   bands (ev):

   -14.6723 -14.6597 -14.5673 -14.5110 -14.4960 -14.4001 -14.3932 -14.3699
   -14.2634 -14.2526  -1.5348   0.9612   4.3635   5.6991

          k = 0.3125-0.3125 0.6875 (  5545 PWs)   bands (ev):

   -14.6721 -14.6569 -14.5755 -14.5056 -14.4928 -14.4191 -14.3870 -14.3566
   -14.2677 -14.2520  -1.5204   0.9384   4.5423   5.4621

          k = 0.1875-0.1875 0.5625 (  5547 PWs)   bands (ev):

   -14.6615 -14.6503 -14.5985 -14.5230 -14.4919 -14.4242 -14.3673 -14.3303
   -14.2774 -14.2638  -2.0810   1.9116   5.0284   5.4713

          k =-0.1875 0.4375 0.1875 (  5544 PWs)   bands (ev):

   -14.6531 -14.6441 -14.6071 -14.5374 -14.5153 -14.3959 -14.3545 -14.3255
   -14.2855 -14.2725  -2.4279   2.5491   5.5852   5.8112

          k =-0.3125 0.5625 0.0625 (  5549 PWs)   bands (ev):

   -14.6627 -14.6579 -14.5858 -14.5227 -14.4906 -14.4217 -14.3693 -14.3466
   -14.2676 -14.2629  -2.0018   1.8013   4.6287   5.6322

          k = 0.5625-0.3125 0.9375 (  5551 PWs)   bands (ev):

   -14.6758 -14.6654 -14.5572 -14.5023 -14.4713 -14.4380 -14.3951 -14.3739
   -14.2575 -14.2483  -1.4142   0.9447   4.0962   5.2431

          k = 0.4375-0.1875 0.8125 (  5551 PWs)   bands (ev):

   -14.6794 -14.6664 -14.5506 -14.4885 -14.4675 -14.4448 -14.4092 -14.3773
   -14.2565 -14.2437  -1.1122   0.5513   4.0583   5.0288

          k = 0.3125-0.0625 0.6875 (  5558 PWs)   bands (ev):

   -14.6698 -14.6634 -14.5730 -14.5043 -14.4668 -14.4500 -14.3872 -14.3559
   -14.2606 -14.2546  -1.5888   1.1956   4.3798   5.1489

          k =-0.1875 0.6875 0.1875 (  5551 PWs)   bands (ev):

   -14.6691 -14.6567 -14.5857 -14.5040 -14.4682 -14.4517 -14.3856 -14.3412
   -14.2685 -14.2552  -1.6598   1.2766   4.5810   5.2015

          k = 0.6875-0.1875 1.0625 (  5551 PWs)   bands (ev):

   -14.6747 -14.6683 -14.5562 -14.4828 -14.4788 -14.4408 -14.4092 -14.3700
   -14.2546 -14.2482  -1.1142   0.5964   4.2330   4.7775

          k = 0.5625-0.0625 0.9375 (  5546 PWs)   bands (ev):

   -14.6800 -14.6746 -14.5238 -14.4893 -14.4619 -14.4371 -14.4277 -14.3985
   -14.2475 -14.2422  -0.5824   0.0241   4.0603   4.4574

          k = 0.4375 0.0625 0.8125 (  5546 PWs)   bands (ev):

   -14.6792 -14.6705 -14.5415 -14.4828 -14.4650 -14.4491 -14.4153 -14.3842
   -14.2520 -14.2436  -0.9992   0.4670   4.0244   4.7797

          k =-0.1875-1.0625 0.1875 (  5533 PWs)   bands (ev):

   -14.6777 -14.6644 -14.5534 -14.5040 -14.4585 -14.4306 -14.4196 -14.3724
   -14.2575 -14.2445  -0.6759   0.0799   4.1133   4.9208

          k =-0.3125-0.9375 0.0625 (  5546 PWs)   bands (ev):

   -14.6771 -14.6712 -14.5372 -14.5042 -14.4588 -14.4331 -14.4179 -14.3873
   -14.2509 -14.2450  -0.6026   0.0235   4.1782   4.5654

          k =-0.1875-0.8125 0.1875 (  5555 PWs)   bands (ev):

   -14.6747 -14.6617 -14.5694 -14.4825 -14.4818 -14.4398 -14.4075 -14.3568
   -14.2614 -14.2483  -1.1771   0.6521   4.2711   5.0154

          k =-0.3125 0.3125 0.3125 (  5555 PWs)   bands (ev):

   -14.6470 -14.6470 -14.6062 -14.5328 -14.5328 -14.3648 -14.3648 -14.3369
   -14.2793 -14.2793  -2.3632   2.2057   6.1851   6.1851

          k =-0.4375 0.4375 0.1875 (  5537 PWs)   bands (ev):

   -14.6583 -14.6554 -14.5875 -14.5294 -14.5115 -14.3875 -14.3672 -14.3538
   -14.2694 -14.2683  -2.0436   1.6848   4.9713   6.0980

          k = 0.4375-0.4375 1.0625 (  5541 PWs)   bands (ev):

   -14.6764 -14.6621 -14.5593 -14.5073 -14.4838 -14.4127 -14.4014 -14.3736
   -14.2604 -14.2482  -1.5154   1.0496   4.0389   5.6555

          k = 0.3125-0.3125 0.9375 (  5518 PWs)   bands (ev):

   -14.6827 -14.6640 -14.5521 -14.4676 -14.4664 -14.4525 -14.4249 -14.3747
   -14.2580 -14.2400  -0.9780   0.4161   3.8538   5.2338

          k =-0.3125 0.5625 0.3125 (  5540 PWs)   bands (ev):

   -14.6631 -14.6519 -14.5893 -14.5211 -14.5080 -14.3986 -14.3719 -14.3469
   -14.2744 -14.2618  -1.8448   1.3144   5.1299   5.6733

          k = 0.5625-0.3125 1.1875 (  5548 PWs)   bands (ev):

   -14.6743 -14.6619 -14.5640 -14.5050 -14.4848 -14.4233 -14.3914 -14.3689
   -14.2617 -14.2498  -1.4349   0.8824   4.3028   5.3548

          k = 0.4375-0.1875 1.0625 (  5543 PWs)   bands (ev):

   -14.6818 -14.6693 -14.5399 -14.4748 -14.4621 -14.4511 -14.4253 -14.3850
   -14.2530 -14.2407  -0.8751   0.3222   3.9187   4.8580

          k =-0.3125-1.1875 0.3125 (  5544 PWs)   bands (ev):

   -14.6790 -14.6615 -14.5616 -14.4862 -14.4781 -14.4382 -14.4064 -14.3672
   -14.2616 -14.2443  -1.2024   0.6237   4.0964   5.3117

          k =-0.4375 0.4375 0.4375 (  5546 PWs)   bands (ev):

   -14.6513 -14.6513 -14.5997 -14.5242 -14.5242 -14.3715 -14.3715 -14.3446
   -14.2745 -14.2745  -1.8115   1.0897   5.9719   5.9719

          k = 0.4375-0.4375 1.3125 (  5545 PWs)   bands (ev):

   -14.6649 -14.6559 -14.5803 -14.5158 -14.5106 -14.3849 -14.3834 -14.3613
   -14.2685 -14.2604  -1.5875   0.8882   4.9084   5.7777

     highest occupied level (ev):     6.9676

!    total energy              =    -318.50050959 Ry
     Harris-Foulkes estimate   =    -318.50050959 Ry
     estimated scf accuracy    <          2.5E-09 Ry

     The total energy is the sum of the following terms:

     one-electron contribution =    -162.00553589 Ry
     hartree contribution      =      97.52383540 Ry
     xc contribution           =     -85.96271413 Ry
     ewald contribution        =    -168.05609497 Ry

     convergence has been achieved in   7 iterations


     Computing stress (Cartesian axis) and pressure

          total   stress  (Ry/bohr**3)                   (kbar)     P=   -4.63
  -0.00003145  -0.00000000  -0.00000000         -4.63     -0.00     -0.00
  -0.00000000  -0.00003145   0.00000000         -0.00     -4.63      0.00
  -0.00000000   0.00000000  -0.00003145         -0.00      0.00     -4.63


     Writing output data file sn.alpha.76.save

     init_run     :      2.46s CPU      2.53s WALL (       1 calls)
     electrons    :     41.52s CPU     42.55s WALL (       1 calls)
     stress       :      1.97s CPU      2.04s WALL (       1 calls)

     Called by init_run:
     wfcinit      :      1.84s CPU      1.88s WALL (       1 calls)
     potinit      :      0.11s CPU      0.12s WALL (       1 calls)

     Called by electrons:
     c_bands      :     32.54s CPU     33.13s WALL (       7 calls)
     sum_band     :      7.23s CPU      7.49s WALL (       7 calls)
     v_of_rho     :      0.72s CPU      0.74s WALL (       8 calls)
     newd         :      1.11s CPU      1.23s WALL (       8 calls)
     mix_rho      :      0.08s CPU      0.08s WALL (       7 calls)

     Called by c_bands:
     init_us_2    :      0.81s CPU      0.82s WALL (     960 calls)
     cegterg      :     31.10s CPU     31.67s WALL (     420 calls)

     Called by sum_band:
     sum_band:bec :      0.00s CPU      0.01s WALL (     420 calls)
     addusdens    :      1.19s CPU      1.36s WALL (       7 calls)

     Called by *egterg:
     h_psi        :     28.72s CPU     29.29s WALL (    1714 calls)
     s_psi        :      0.46s CPU      0.47s WALL (    1714 calls)
     g_psi        :      0.15s CPU      0.14s WALL (    1234 calls)
     cdiaghg      :      0.72s CPU      0.72s WALL (    1654 calls)

     Called by h_psi:
     h_psi:pot    :     28.45s CPU     29.02s WALL (    1714 calls)
     h_psi:calbec :      0.85s CPU      0.86s WALL (    1714 calls)
     vloc_psi     :     27.06s CPU     27.61s WALL (    1714 calls)
     add_vuspsi   :      0.54s CPU      0.54s WALL (    1714 calls)

     General routines
     calbec       :      1.09s CPU      1.10s WALL (    2194 calls)
     fft          :      0.49s CPU      0.52s WALL (     138 calls)
     ffts         :      0.01s CPU      0.01s WALL (      15 calls)
     fftw         :     22.59s CPU     23.06s WALL (   45584 calls)
     interpolate  :      0.08s CPU      0.08s WALL (      15 calls)
     davcio       :      0.00s CPU      0.01s WALL (      60 calls)

     Parallel routines
     fft_scatter  :      3.51s CPU      3.62s WALL (   45737 calls)

     PWSCF        :    46.11s CPU        48.71s WALL


   This run was terminated on:  13: 3: 1  12Nov2017            

=------------------------------------------------------------------------------=
   JOB DONE.
=------------------------------------------------------------------------------=
