
     Program PWSCF v.6.1 (svn rev. 13369) starts on 13Nov2017 at  2:27:13 

     This program is part of the open-source Quantum ESPRESSO suite
     for quantum simulation of materials; please cite
         "P. Giannozzi et al., J. Phys.:Condens. Matter 21 395502 (2009);
          URL http://www.quantum-espresso.org", 
     in publications or presentations arising from this work. More details at
     http://www.quantum-espresso.org/quote

     Parallel version (MPI), running on     4 processors
     R & G space division:  proc/nbgrp/npool/nimage =       4
     Waiting for input...
     Reading input from standard input

     Current dimensions of program PWSCF are:
     Max number of different atomic species (ntypx) = 10
     Max number of k-points (npk) =  40000
     Max angular momentum in pseudopotentials (lmaxx) =  3

     Subspace diagonalization in iterative solution of the eigenvalue problem:
     a serial algorithm will be used


     Parallelization info
     --------------------
     sticks:   dense  smooth     PW     G-vecs:    dense   smooth      PW
     Min        1235     494    198                17718     4462    1142
     Max        1236     495    199                17719     4463    1143
     Sum        4941    1977    793                70873    17849    4569



     bravais-lattice index     =            0
     lattice parameter (alat)  =      11.3000  a.u.
     unit-cell volume          =     374.9153 (a.u.)^3
     number of atoms/cell      =            2
     number of atomic types    =            1
     number of electrons       =        28.00
     number of Kohn-Sham states=           18
     kinetic-energy cutoff     =      50.0000  Ry
     charge density cutoff     =     500.0000  Ry
     convergence threshold     =      1.0E-08
     mixing beta               =       0.7000
     number of iterations used =            8  plain     mixing
     Exchange-correlation      =  SLA  PW   PBX  PBC ( 1  4  3  4 0 0)

     celldm(1)=  11.300000  celldm(2)=   0.000000  celldm(3)=   0.000000
     celldm(4)=   0.000000  celldm(5)=   0.000000  celldm(6)=   0.000000

     crystal axes: (cart. coord. in units of alat)
               a(1) = (   0.986837   0.000000   0.000000 )  
               a(2) = (   0.000000   0.986837   0.000000 )  
               a(3) = (   0.493419   0.493419   0.266813 )  

     reciprocal axes: (cart. coord. in units 2 pi/alat)
               b(1) = (  1.013339  0.000000 -1.873974 )  
               b(2) = (  0.000000  1.013339 -1.873974 )  
               b(3) = (  0.000000  0.000000  3.747943 )  


     PseudoPot. # 1 for Sn read from file:
     /home/s1333534/quantum_espresso/qe-6.1/pseudo/sn_pbe_v1.4.uspp.F.UPF
     MD5 check sum: 469debedee59599fedebd795477fea03
     Pseudo is Ultrasoft + core correction, Zval = 14.0
     Generated by new atomic code, or converted to UPF format
     Using radial grid of  891 points,  6 beta functions with: 
                l(1) =   0
                l(2) =   0
                l(3) =   1
                l(4) =   1
                l(5) =   2
                l(6) =   2
     Q(r) pseudized with  8 coefficients,  rinner =    1.350   1.350   1.350
                                                       1.350   1.350

     atomic species   valence    mass     pseudopotential
        Sn            14.00   118.71000     Sn( 1.00)

     No symmetry found



   Cartesian axes

     site n.     atom                  positions (alat units)
         1           Sn  tau(   1) = (   1.0725850   1.3160481   0.0533919  )
         2           Sn  tau(   2) = (   0.5198369   0.2763739   0.0177973  )

     number of k points=   448  Marzari-Vanderbilt smearing, width (Ry)=  0.0200

     Number of k-points >= 100: set verbosity='high' to print them.

     Dense  grid:    70873 G-vectors     FFT dimensions: (  80,  80,  64)

     Smooth grid:    17849 G-vectors     FFT dimensions: (  54,  54,  40)

     Estimated max dynamical RAM per process >      84.67MB

     Estimated total allocated dynamical RAM >     338.67MB

     Initial potential from superposition of free atoms

     starting charge   25.99991, renormalised to   28.00000
     Starting wfc are   18 randomized atomic wfcs

     total cpu time spent up to now is       13.7 secs

     per-process dynamical memory:    93.5 Mb

     Self-consistent Calculation

     iteration #  1     ecut=    50.00 Ry     beta=0.70
     Davidson diagonalization with overlap
     ethr =  1.00E-02,  avg # of iterations =  3.9

     total cpu time spent up to now is       65.1 secs

     total energy              =    -317.50098642 Ry
     Harris-Foulkes estimate   =    -319.47366902 Ry
     estimated scf accuracy    <       2.41535501 Ry

     iteration #  2     ecut=    50.00 Ry     beta=0.70
     Davidson diagonalization with overlap
     ethr =  8.63E-03,  avg # of iterations =  2.6

     total cpu time spent up to now is      110.1 secs

     total energy              =    -318.35524580 Ry
     Harris-Foulkes estimate   =    -318.65532035 Ry
     estimated scf accuracy    <       0.44137948 Ry

     iteration #  3     ecut=    50.00 Ry     beta=0.70
     Davidson diagonalization with overlap
     ethr =  1.58E-03,  avg # of iterations =  2.0

     total cpu time spent up to now is      154.1 secs

     total energy              =    -318.44674440 Ry
     Harris-Foulkes estimate   =    -318.44847430 Ry
     estimated scf accuracy    <       0.00292341 Ry

     iteration #  4     ecut=    50.00 Ry     beta=0.70
     Davidson diagonalization with overlap
     ethr =  1.04E-05,  avg # of iterations =  3.6

     total cpu time spent up to now is      203.4 secs

     total energy              =    -318.44736164 Ry
     Harris-Foulkes estimate   =    -318.44752696 Ry
     estimated scf accuracy    <       0.00032857 Ry

     iteration #  5     ecut=    50.00 Ry     beta=0.70
     Davidson diagonalization with overlap
     ethr =  1.17E-06,  avg # of iterations =  2.6

     total cpu time spent up to now is      241.6 secs

     total energy              =    -318.44741380 Ry
     Harris-Foulkes estimate   =    -318.44742423 Ry
     estimated scf accuracy    <       0.00001790 Ry

     iteration #  6     ecut=    50.00 Ry     beta=0.70
     Davidson diagonalization with overlap
     ethr =  6.39E-08,  avg # of iterations =  3.0

     total cpu time spent up to now is      289.7 secs

     total energy              =    -318.44742070 Ry
     Harris-Foulkes estimate   =    -318.44742109 Ry
     estimated scf accuracy    <       0.00000087 Ry

     iteration #  7     ecut=    50.00 Ry     beta=0.70
     Davidson diagonalization with overlap
     ethr =  3.12E-09,  avg # of iterations =  2.7

     total cpu time spent up to now is      331.4 secs

     total energy              =    -318.44742081 Ry
     Harris-Foulkes estimate   =    -318.44742093 Ry
     estimated scf accuracy    <       0.00000018 Ry

     iteration #  8     ecut=    50.00 Ry     beta=0.70
     Davidson diagonalization with overlap
     ethr =  6.27E-10,  avg # of iterations =  3.0

     total cpu time spent up to now is      378.0 secs

     End of self-consistent calculation

     Number of k-points >= 100: set verbosity='high' to print the bands.

     the Fermi energy is    10.3949 ev

!    total energy              =    -318.44742087 Ry
     Harris-Foulkes estimate   =    -318.44742088 Ry
     estimated scf accuracy    <          7.1E-09 Ry

     The total energy is the sum of the following terms:

     one-electron contribution =    -118.58070814 Ry
     hartree contribution      =      79.32695062 Ry
     xc contribution           =     -86.04786307 Ry
     ewald contribution        =    -193.14590393 Ry
     smearing contrib. (-TS)   =       0.00010365 Ry

     convergence has been achieved in   8 iterations

     Writing output data file sn.beta.11.30.save

     init_run     :     13.37s CPU     13.66s WALL (       1 calls)
     electrons    :    357.08s CPU    364.36s WALL (       1 calls)

     Called by init_run:
     wfcinit      :     12.25s CPU     12.53s WALL (       1 calls)
     potinit      :      0.31s CPU      0.32s WALL (       1 calls)

     Called by electrons:
     c_bands      :    290.31s CPU    296.30s WALL (       8 calls)
     sum_band     :     64.92s CPU     66.08s WALL (       8 calls)
     v_of_rho     :      0.97s CPU      1.00s WALL (       9 calls)
     newd         :      0.90s CPU      0.96s WALL (       9 calls)
     mix_rho      :      0.10s CPU      0.10s WALL (       8 calls)

     Called by c_bands:
     init_us_2    :      2.49s CPU      2.52s WALL (    7616 calls)
     cegterg      :    285.65s CPU    291.57s WALL (    3584 calls)

     Called by sum_band:
     sum_band:bec :      0.05s CPU      0.05s WALL (    3584 calls)
     addusdens    :      1.02s CPU      1.14s WALL (       8 calls)

     Called by *egterg:
     h_psi        :    273.89s CPU    279.68s WALL (   14557 calls)
     s_psi        :      1.45s CPU      1.47s WALL (   14557 calls)
     g_psi        :      0.54s CPU      0.55s WALL (   10525 calls)
     cdiaghg      :      9.15s CPU      9.28s WALL (   14109 calls)

     Called by h_psi:
     h_psi:pot    :    273.05s CPU    278.82s WALL (   14557 calls)
     h_psi:calbec :      3.74s CPU      3.78s WALL (   14557 calls)
     vloc_psi     :    267.36s CPU    273.02s WALL (   14557 calls)
     add_vuspsi   :      1.93s CPU      1.96s WALL (   14557 calls)

     General routines
     calbec       :      4.94s CPU      4.97s WALL (   18141 calls)
     fft          :      0.67s CPU      0.71s WALL (     140 calls)
     ffts         :      0.01s CPU      0.01s WALL (      17 calls)
     fftw         :    207.34s CPU    211.85s WALL (  448182 calls)
     interpolate  :      0.11s CPU      0.12s WALL (      17 calls)
     davcio       :      0.01s CPU      0.02s WALL (     448 calls)

     Parallel routines
     fft_scatter  :     39.88s CPU     40.99s WALL (  448339 calls)

     PWSCF        :  6m11.07s CPU     6m26.95s WALL


   This run was terminated on:   2:33:40  13Nov2017            

=------------------------------------------------------------------------------=
   JOB DONE.
=------------------------------------------------------------------------------=
