
     Program PWSCF v.6.1 (svn rev. 13369) starts on 22Jan2018 at 10:45:34 

     This program is part of the open-source Quantum ESPRESSO suite
     for quantum simulation of materials; please cite
         "P. Giannozzi et al., J. Phys.:Condens. Matter 21 395502 (2009);
          URL http://www.quantum-espresso.org", 
     in publications or presentations arising from this work. More details at
     http://www.quantum-espresso.org/quote

     Parallel version (MPI), running on     4 processors
     R & G space division:  proc/nbgrp/npool/nimage =       4
     Waiting for input...
     Reading input from standard input
     Message from routine read_cards :
     DEPRECATED: no units specified in ATOMIC_POSITIONS card
     Message from routine read_cards :
     ATOMIC_POSITIONS: units set to alat

     Current dimensions of program PWSCF are:
     Max number of different atomic species (ntypx) = 10
     Max number of k-points (npk) =  40000
     Max angular momentum in pseudopotentials (lmaxx) =  3

     Subspace diagonalization in iterative solution of the eigenvalue problem:
     a serial algorithm will be used


     Parallelization info
     --------------------
     sticks:   dense  smooth     PW     G-vecs:    dense   smooth      PW
     Min         543     268     84                16737     5896    1003
     Max         544     269     85                16740     5899    1005
     Sum        2173    1075    337                66953    23589    4015



     bravais-lattice index     =            2
     lattice parameter (alat)  =      12.5779  a.u.
     unit-cell volume          =     497.4707 (a.u.)^3
     number of atoms/cell      =            2
     number of atomic types    =            1
     number of electrons       =        28.00
     number of Kohn-Sham states=           14
     kinetic-energy cutoff     =      50.0000  Ry
     charge density cutoff     =     400.0000  Ry
     convergence threshold     =      1.0E-08
     mixing beta               =       0.7000
     number of iterations used =            8  plain     mixing
     Exchange-correlation      =  SLA  PW   PBX  PBC ( 1  4  3  4 0 0)

     celldm(1)=  12.577930  celldm(2)=   0.000000  celldm(3)=   0.000000
     celldm(4)=   0.000000  celldm(5)=   0.000000  celldm(6)=   0.000000

     crystal axes: (cart. coord. in units of alat)
               a(1) = (  -0.500000   0.000000   0.500000 )  
               a(2) = (   0.000000   0.500000   0.500000 )  
               a(3) = (  -0.500000   0.500000   0.000000 )  

     reciprocal axes: (cart. coord. in units 2 pi/alat)
               b(1) = ( -1.000000 -1.000000  1.000000 )  
               b(2) = (  1.000000  1.000000  1.000000 )  
               b(3) = ( -1.000000  1.000000 -1.000000 )  


     PseudoPot. # 1 for Sn read from file:
     /home/s1333534/quantum_espresso/qe-6.1/pseudo/sn_pbe_v1.4.uspp.F.UPF
     MD5 check sum: 469debedee59599fedebd795477fea03
     Pseudo is Ultrasoft + core correction, Zval = 14.0
     Generated by new atomic code, or converted to UPF format
     Using radial grid of  891 points,  6 beta functions with: 
                l(1) =   0
                l(2) =   0
                l(3) =   1
                l(4) =   1
                l(5) =   2
                l(6) =   2
     Q(r) pseudized with  8 coefficients,  rinner =    1.350   1.350   1.350
                                                       1.350   1.350

     atomic species   valence    mass     pseudopotential
        Sn            14.00   118.71000     Sn( 1.00)

     48 Sym. Ops., with inversion, found (24 have fractional translation)



   Cartesian axes

     site n.     atom                  positions (alat units)
         1           Sn  tau(   1) = (   0.0000000   0.0000000   0.0000000  )
         2           Sn  tau(   2) = (   0.2500000   0.2500000   0.2500000  )

     number of k points=   408

     Number of k-points >= 100: set verbosity='high' to print them.

     Dense  grid:    66953 G-vectors     FFT dimensions: (  60,  60,  60)

     Smooth grid:    23589 G-vectors     FFT dimensions: (  45,  45,  45)

     Estimated max dynamical RAM per process >      76.94MB

     Estimated total allocated dynamical RAM >     307.76MB

     Initial potential from superposition of free atoms

     starting charge   25.99991, renormalised to   28.00000
     Starting wfc are   18 randomized atomic wfcs

     total cpu time spent up to now is        8.3 secs

     per-process dynamical memory:    84.0 Mb

     Self-consistent Calculation

     iteration #  1     ecut=    50.00 Ry     beta=0.70
     Davidson diagonalization with overlap
     ethr =  1.00E-02,  avg # of iterations =  2.6

     total cpu time spent up to now is       29.7 secs

     total energy              =    -317.48477661 Ry
     Harris-Foulkes estimate   =    -319.54922331 Ry
     estimated scf accuracy    <       2.51523119 Ry

     iteration #  2     ecut=    50.00 Ry     beta=0.70
     Davidson diagonalization with overlap
     ethr =  8.98E-03,  avg # of iterations =  3.0

     total cpu time spent up to now is       53.4 secs

     total energy              =    -318.39373184 Ry
     Harris-Foulkes estimate   =    -318.71209735 Ry
     estimated scf accuracy    <       0.47395380 Ry

     iteration #  3     ecut=    50.00 Ry     beta=0.70
     Davidson diagonalization with overlap
     ethr =  1.69E-03,  avg # of iterations =  2.0

     total cpu time spent up to now is       73.9 secs

     total energy              =    -318.48887587 Ry
     Harris-Foulkes estimate   =    -318.49044516 Ry
     estimated scf accuracy    <       0.00287695 Ry

     iteration #  4     ecut=    50.00 Ry     beta=0.70
     Davidson diagonalization with overlap
     ethr =  1.03E-05,  avg # of iterations =  2.9

     total cpu time spent up to now is       95.5 secs

     total energy              =    -318.48976022 Ry
     Harris-Foulkes estimate   =    -318.48987722 Ry
     estimated scf accuracy    <       0.00017331 Ry

     iteration #  5     ecut=    50.00 Ry     beta=0.70
     Davidson diagonalization with overlap
     ethr =  6.19E-07,  avg # of iterations =  3.0

     total cpu time spent up to now is      117.5 secs

     total energy              =    -318.48981350 Ry
     Harris-Foulkes estimate   =    -318.48981423 Ry
     estimated scf accuracy    <       0.00000149 Ry

     iteration #  6     ecut=    50.00 Ry     beta=0.70
     Davidson diagonalization with overlap
     ethr =  5.33E-09,  avg # of iterations =  4.0

     total cpu time spent up to now is      141.0 secs

     total energy              =    -318.48981427 Ry
     Harris-Foulkes estimate   =    -318.48981432 Ry
     estimated scf accuracy    <       0.00000007 Ry

     iteration #  7     ecut=    50.00 Ry     beta=0.70
     Davidson diagonalization with overlap
     ethr =  2.58E-10,  avg # of iterations =  3.1

     total cpu time spent up to now is      163.7 secs

     End of self-consistent calculation

     Number of k-points >= 100: set verbosity='high' to print the bands.

     highest occupied level (ev):     6.9855

!    total energy              =    -318.48981430 Ry
     Harris-Foulkes estimate   =    -318.48981431 Ry
     estimated scf accuracy    <          2.4E-09 Ry

     The total energy is the sum of the following terms:

     one-electron contribution =    -162.27689372 Ry
     hartree contribution      =      97.63162331 Ry
     xc contribution           =     -85.96120642 Ry
     ewald contribution        =    -167.88333747 Ry

     convergence has been achieved in   7 iterations

     Writing output data file sn.alpha.save

     init_run     :      7.71s CPU      7.99s WALL (       1 calls)
     electrons    :    151.51s CPU    155.51s WALL (       1 calls)

     Called by init_run:
     wfcinit      :      7.21s CPU      7.42s WALL (       1 calls)
     potinit      :      0.06s CPU      0.07s WALL (       1 calls)

     Called by electrons:
     c_bands      :    130.03s CPU    133.19s WALL (       7 calls)
     sum_band     :     20.60s CPU     21.15s WALL (       7 calls)
     v_of_rho     :      0.39s CPU      0.41s WALL (       8 calls)
     newd         :      0.54s CPU      0.62s WALL (       8 calls)
     mix_rho      :      0.03s CPU      0.08s WALL (       7 calls)

     Called by c_bands:
     init_us_2    :      2.48s CPU      2.52s WALL (    6120 calls)
     cegterg      :    125.22s CPU    128.27s WALL (    2856 calls)

     Called by sum_band:
     sum_band:bec :      0.03s CPU      0.03s WALL (    2856 calls)
     addusdens    :      0.53s CPU      0.64s WALL (       7 calls)

     Called by *egterg:
     h_psi        :    115.11s CPU    118.12s WALL (   11686 calls)
     s_psi        :      1.41s CPU      1.44s WALL (   11686 calls)
     g_psi        :      0.52s CPU      0.52s WALL (    8422 calls)
     cdiaghg      :      4.88s CPU      4.97s WALL (   11278 calls)

     Called by h_psi:
     h_psi:pot    :    114.44s CPU    117.43s WALL (   11686 calls)
     h_psi:calbec :      3.29s CPU      3.40s WALL (   11686 calls)
     vloc_psi     :    109.26s CPU    112.11s WALL (   11686 calls)
     add_vuspsi   :      1.83s CPU      1.87s WALL (   11686 calls)

     General routines
     calbec       :      4.08s CPU      4.21s WALL (   14542 calls)
     fft          :      0.18s CPU      0.24s WALL (     124 calls)
     ffts         :      0.01s CPU      0.01s WALL (      15 calls)
     fftw         :    108.87s CPU    111.68s WALL (  309916 calls)
     interpolate  :      0.04s CPU      0.04s WALL (      15 calls)
     davcio       :      0.01s CPU      0.02s WALL (     408 calls)

     Parallel routines
     fft_scatter  :     13.49s CPU     13.99s WALL (  310055 calls)

     PWSCF        :  2m39.87s CPU     2m54.47s WALL


   This run was terminated on:  10:48:29  22Jan2018            

=------------------------------------------------------------------------------=
   JOB DONE.
=------------------------------------------------------------------------------=
