
     Program PWSCF v.6.1 (svn rev. 13369) starts on 13Nov2017 at  1:57:58 

     This program is part of the open-source Quantum ESPRESSO suite
     for quantum simulation of materials; please cite
         "P. Giannozzi et al., J. Phys.:Condens. Matter 21 395502 (2009);
          URL http://www.quantum-espresso.org", 
     in publications or presentations arising from this work. More details at
     http://www.quantum-espresso.org/quote

     Parallel version (MPI), running on     4 processors
     R & G space division:  proc/nbgrp/npool/nimage =       4
     Waiting for input...
     Reading input from standard input

     Current dimensions of program PWSCF are:
     Max number of different atomic species (ntypx) = 10
     Max number of k-points (npk) =  40000
     Max angular momentum in pseudopotentials (lmaxx) =  3

     Subspace diagonalization in iterative solution of the eigenvalue problem:
     a serial algorithm will be used


     Parallelization info
     --------------------
     sticks:   dense  smooth     PW     G-vecs:    dense   smooth      PW
     Min        1206     481    194                17021     4304    1104
     Max        1207     482    195                17022     4305    1105
     Sum        4825    1925    777                68085    17217    4417



     bravais-lattice index     =            0
     lattice parameter (alat)  =      11.1500  a.u.
     unit-cell volume          =     360.1824 (a.u.)^3
     number of atoms/cell      =            2
     number of atomic types    =            1
     number of electrons       =        28.00
     number of Kohn-Sham states=           18
     kinetic-energy cutoff     =      50.0000  Ry
     charge density cutoff     =     500.0000  Ry
     convergence threshold     =      1.0E-08
     mixing beta               =       0.7000
     number of iterations used =            8  plain     mixing
     Exchange-correlation      =  SLA  PW   PBX  PBC ( 1  4  3  4 0 0)

     celldm(1)=  11.150000  celldm(2)=   0.000000  celldm(3)=   0.000000
     celldm(4)=   0.000000  celldm(5)=   0.000000  celldm(6)=   0.000000

     crystal axes: (cart. coord. in units of alat)
               a(1) = (   0.986837   0.000000   0.000000 )  
               a(2) = (   0.000000   0.986837   0.000000 )  
               a(3) = (   0.493419   0.493419   0.266813 )  

     reciprocal axes: (cart. coord. in units 2 pi/alat)
               b(1) = (  1.013339  0.000000 -1.873974 )  
               b(2) = (  0.000000  1.013339 -1.873974 )  
               b(3) = (  0.000000  0.000000  3.747943 )  


     PseudoPot. # 1 for Sn read from file:
     /home/s1333534/quantum_espresso/qe-6.1/pseudo/sn_pbe_v1.4.uspp.F.UPF
     MD5 check sum: 469debedee59599fedebd795477fea03
     Pseudo is Ultrasoft + core correction, Zval = 14.0
     Generated by new atomic code, or converted to UPF format
     Using radial grid of  891 points,  6 beta functions with: 
                l(1) =   0
                l(2) =   0
                l(3) =   1
                l(4) =   1
                l(5) =   2
                l(6) =   2
     Q(r) pseudized with  8 coefficients,  rinner =    1.350   1.350   1.350
                                                       1.350   1.350

     atomic species   valence    mass     pseudopotential
        Sn            14.00   118.71000     Sn( 1.00)

     No symmetry found



   Cartesian axes

     site n.     atom                  positions (alat units)
         1           Sn  tau(   1) = (   1.0725850   1.3160481   0.0533919  )
         2           Sn  tau(   2) = (   0.5198369   0.2763739   0.0177973  )

     number of k points=   448  Marzari-Vanderbilt smearing, width (Ry)=  0.0200

     Number of k-points >= 100: set verbosity='high' to print them.

     Dense  grid:    68085 G-vectors     FFT dimensions: (  80,  80,  60)

     Smooth grid:    17217 G-vectors     FFT dimensions: (  50,  50,  40)

     Estimated max dynamical RAM per process >      81.18MB

     Estimated total allocated dynamical RAM >     324.72MB

     Initial potential from superposition of free atoms

     starting charge   25.99991, renormalised to   28.00000
     Starting wfc are   18 randomized atomic wfcs

     total cpu time spent up to now is       12.4 secs

     per-process dynamical memory:    86.7 Mb

     Self-consistent Calculation

     iteration #  1     ecut=    50.00 Ry     beta=0.70
     Davidson diagonalization with overlap
     ethr =  1.00E-02,  avg # of iterations =  4.0

     total cpu time spent up to now is       58.9 secs

     total energy              =    -317.50313262 Ry
     Harris-Foulkes estimate   =    -319.45709253 Ry
     estimated scf accuracy    <       2.39290905 Ry

     iteration #  2     ecut=    50.00 Ry     beta=0.70
     Davidson diagonalization with overlap
     ethr =  8.55E-03,  avg # of iterations =  2.6

     total cpu time spent up to now is       99.4 secs

     total energy              =    -318.34900111 Ry
     Harris-Foulkes estimate   =    -318.64522303 Ry
     estimated scf accuracy    <       0.43583151 Ry

     iteration #  3     ecut=    50.00 Ry     beta=0.70
     Davidson diagonalization with overlap
     ethr =  1.56E-03,  avg # of iterations =  2.0

     total cpu time spent up to now is      138.7 secs

     total energy              =    -318.43932648 Ry
     Harris-Foulkes estimate   =    -318.44102017 Ry
     estimated scf accuracy    <       0.00287182 Ry

     iteration #  4     ecut=    50.00 Ry     beta=0.70
     Davidson diagonalization with overlap
     ethr =  1.03E-05,  avg # of iterations =  3.6

     total cpu time spent up to now is      182.8 secs

     total energy              =    -318.43993392 Ry
     Harris-Foulkes estimate   =    -318.44009175 Ry
     estimated scf accuracy    <       0.00031525 Ry

     iteration #  5     ecut=    50.00 Ry     beta=0.70
     Davidson diagonalization with overlap
     ethr =  1.13E-06,  avg # of iterations =  2.6

     total cpu time spent up to now is      216.8 secs

     total energy              =    -318.43998358 Ry
     Harris-Foulkes estimate   =    -318.43999377 Ry
     estimated scf accuracy    <       0.00001757 Ry

     iteration #  6     ecut=    50.00 Ry     beta=0.70
     Davidson diagonalization with overlap
     ethr =  6.28E-08,  avg # of iterations =  3.0

     total cpu time spent up to now is      259.6 secs

     total energy              =    -318.43999026 Ry
     Harris-Foulkes estimate   =    -318.43999065 Ry
     estimated scf accuracy    <       0.00000085 Ry

     iteration #  7     ecut=    50.00 Ry     beta=0.70
     Davidson diagonalization with overlap
     ethr =  3.04E-09,  avg # of iterations =  2.8

     total cpu time spent up to now is      297.4 secs

     total energy              =    -318.43999038 Ry
     Harris-Foulkes estimate   =    -318.43999050 Ry
     estimated scf accuracy    <       0.00000017 Ry

     iteration #  8     ecut=    50.00 Ry     beta=0.70
     Davidson diagonalization with overlap
     ethr =  6.13E-10,  avg # of iterations =  3.0

     total cpu time spent up to now is      339.5 secs

     End of self-consistent calculation

     Number of k-points >= 100: set verbosity='high' to print the bands.

     the Fermi energy is    10.9997 ev

!    total energy              =    -318.43999044 Ry
     Harris-Foulkes estimate   =    -318.43999044 Ry
     estimated scf accuracy    <          5.9E-09 Ry

     The total energy is the sum of the following terms:

     one-electron contribution =    -114.45383277 Ry
     hartree contribution      =      77.85216566 Ry
     xc contribution           =     -86.09412684 Ry
     ewald contribution        =    -195.74427932 Ry
     smearing contrib. (-TS)   =       0.00008283 Ry

     convergence has been achieved in   8 iterations

     Writing output data file sn.beta.11.15.save

     init_run     :     12.07s CPU     12.34s WALL (       1 calls)
     electrons    :    319.98s CPU    327.13s WALL (       1 calls)

     Called by init_run:
     wfcinit      :     11.00s CPU     11.25s WALL (       1 calls)
     potinit      :      0.29s CPU      0.30s WALL (       1 calls)

     Called by electrons:
     c_bands      :    261.65s CPU    267.52s WALL (       8 calls)
     sum_band     :     56.63s CPU     57.73s WALL (       8 calls)
     v_of_rho     :      0.86s CPU      0.92s WALL (       9 calls)
     newd         :      0.87s CPU      0.92s WALL (       9 calls)
     mix_rho      :      0.08s CPU      0.09s WALL (       8 calls)

     Called by c_bands:
     init_us_2    :      2.13s CPU      2.17s WALL (    7616 calls)
     cegterg      :    257.26s CPU    263.05s WALL (    3584 calls)

     Called by sum_band:
     sum_band:bec :      0.04s CPU      0.05s WALL (    3584 calls)
     addusdens    :      0.99s CPU      1.09s WALL (       8 calls)

     Called by *egterg:
     h_psi        :    245.06s CPU    250.69s WALL (   14564 calls)
     s_psi        :      1.40s CPU      1.42s WALL (   14564 calls)
     g_psi        :      0.50s CPU      0.51s WALL (   10532 calls)
     cdiaghg      :      9.13s CPU      9.29s WALL (   14116 calls)

     Called by h_psi:
     h_psi:pot    :    244.37s CPU    249.98s WALL (   14564 calls)
     h_psi:calbec :      3.63s CPU      3.69s WALL (   14564 calls)
     vloc_psi     :    238.93s CPU    244.43s WALL (   14564 calls)
     add_vuspsi   :      1.79s CPU      1.80s WALL (   14564 calls)

     General routines
     calbec       :      4.77s CPU      4.82s WALL (   18148 calls)
     fft          :      0.58s CPU      0.63s WALL (     140 calls)
     ffts         :      0.01s CPU      0.01s WALL (      17 calls)
     fftw         :    184.68s CPU    189.05s WALL (  448362 calls)
     interpolate  :      0.10s CPU      0.11s WALL (      17 calls)
     davcio       :      0.01s CPU      0.02s WALL (     448 calls)

     Parallel routines
     fft_scatter  :     33.47s CPU     34.52s WALL (  448519 calls)

     PWSCF        :  5m32.67s CPU     5m47.67s WALL


   This run was terminated on:   2: 3:45  13Nov2017            

=------------------------------------------------------------------------------=
   JOB DONE.
=------------------------------------------------------------------------------=
