
     Program PWSCF v.6.1 (svn rev. 13369) starts on 12Nov2017 at 13: 1:35 

     This program is part of the open-source Quantum ESPRESSO suite
     for quantum simulation of materials; please cite
         "P. Giannozzi et al., J. Phys.:Condens. Matter 21 395502 (2009);
          URL http://www.quantum-espresso.org", 
     in publications or presentations arising from this work. More details at
     http://www.quantum-espresso.org/quote

     Parallel version (MPI), running on     4 processors
     R & G space division:  proc/nbgrp/npool/nimage =       4
     Waiting for input...
     Reading input from standard input
     Message from routine read_cards :
     DEPRECATED: no units specified in ATOMIC_POSITIONS card
     Message from routine read_cards :
     ATOMIC_POSITIONS: units set to alat

     Current dimensions of program PWSCF are:
     Max number of different atomic species (ntypx) = 10
     Max number of k-points (npk) =  40000
     Max angular momentum in pseudopotentials (lmaxx) =  3

     Subspace diagonalization in iterative solution of the eigenvalue problem:
     a serial algorithm will be used


     Parallelization info
     --------------------
     sticks:   dense  smooth     PW     G-vecs:    dense   smooth      PW
     Min         762     379    109                27736     9796    1557
     Max         763     380    110                27738     9798    1558
     Sum        3049    1519    439               110947    39189    6231



     bravais-lattice index     =            2
     lattice parameter (alat)  =      12.5650  a.u.
     unit-cell volume          =     495.9381 (a.u.)^3
     number of atoms/cell      =            2
     number of atomic types    =            1
     number of electrons       =        28.00
     number of Kohn-Sham states=           14
     kinetic-energy cutoff     =      70.0000  Ry
     charge density cutoff     =     560.0000  Ry
     convergence threshold     =      1.0E-08
     mixing beta               =       0.7000
     number of iterations used =            8  plain     mixing
     Exchange-correlation      =  SLA  PW   PBX  PBC ( 1  4  3  4 0 0)

     celldm(1)=  12.565000  celldm(2)=   0.000000  celldm(3)=   0.000000
     celldm(4)=   0.000000  celldm(5)=   0.000000  celldm(6)=   0.000000

     crystal axes: (cart. coord. in units of alat)
               a(1) = (  -0.500000   0.000000   0.500000 )  
               a(2) = (   0.000000   0.500000   0.500000 )  
               a(3) = (  -0.500000   0.500000   0.000000 )  

     reciprocal axes: (cart. coord. in units 2 pi/alat)
               b(1) = ( -1.000000 -1.000000  1.000000 )  
               b(2) = (  1.000000  1.000000  1.000000 )  
               b(3) = ( -1.000000  1.000000 -1.000000 )  


     PseudoPot. # 1 for Sn read from file:
     /home/s1333534/quantum_espresso/qe-6.1/pseudo/sn_pbe_v1.4.uspp.F.UPF
     MD5 check sum: 469debedee59599fedebd795477fea03
     Pseudo is Ultrasoft + core correction, Zval = 14.0
     Generated by new atomic code, or converted to UPF format
     Using radial grid of  891 points,  6 beta functions with: 
                l(1) =   0
                l(2) =   0
                l(3) =   1
                l(4) =   1
                l(5) =   2
                l(6) =   2
     Q(r) pseudized with  8 coefficients,  rinner =    1.350   1.350   1.350
                                                       1.350   1.350

     atomic species   valence    mass     pseudopotential
        Sn            14.00   118.71000     Sn( 1.00)

     48 Sym. Ops., with inversion, found (24 have fractional translation)



   Cartesian axes

     site n.     atom                  positions (alat units)
         1           Sn  tau(   1) = (   0.0000000   0.0000000   0.0000000  )
         2           Sn  tau(   2) = (   0.2500000   0.2500000   0.2500000  )

     number of k points=    60
                       cart. coord. in units 2pi/alat
        k(    1) = (  -0.0625000   0.0625000   0.0625000), wk =   0.0078125
        k(    2) = (  -0.1875000   0.1875000  -0.0625000), wk =   0.0234375
        k(    3) = (  -0.3125000   0.3125000  -0.1875000), wk =   0.0234375
        k(    4) = (  -0.4375000   0.4375000  -0.3125000), wk =   0.0234375
        k(    5) = (   0.4375000  -0.4375000   0.5625000), wk =   0.0234375
        k(    6) = (   0.3125000  -0.3125000   0.4375000), wk =   0.0234375
        k(    7) = (   0.1875000  -0.1875000   0.3125000), wk =   0.0234375
        k(    8) = (   0.0625000  -0.0625000   0.1875000), wk =   0.0234375
        k(    9) = (  -0.0625000   0.3125000   0.0625000), wk =   0.0234375
        k(   10) = (  -0.1875000   0.4375000  -0.0625000), wk =   0.0468750
        k(   11) = (  -0.3125000   0.5625000  -0.1875000), wk =   0.0468750
        k(   12) = (   0.5625000  -0.3125000   0.6875000), wk =   0.0468750
        k(   13) = (   0.4375000  -0.1875000   0.5625000), wk =   0.0468750
        k(   14) = (   0.3125000  -0.0625000   0.4375000), wk =   0.0468750
        k(   15) = (   0.1875000   0.0625000   0.3125000), wk =   0.0468750
        k(   16) = (  -0.0625000   0.5625000   0.0625000), wk =   0.0234375
        k(   17) = (  -0.1875000   0.6875000  -0.0625000), wk =   0.0468750
        k(   18) = (   0.6875000  -0.1875000   0.8125000), wk =   0.0468750
        k(   19) = (   0.5625000  -0.0625000   0.6875000), wk =   0.0468750
        k(   20) = (   0.4375000   0.0625000   0.5625000), wk =   0.0468750
        k(   21) = (   0.3125000   0.1875000   0.4375000), wk =   0.0468750
        k(   22) = (  -0.0625000   0.8125000   0.0625000), wk =   0.0234375
        k(   23) = (   0.8125000  -0.0625000   0.9375000), wk =   0.0468750
        k(   24) = (   0.6875000   0.0625000   0.8125000), wk =   0.0468750
        k(   25) = (   0.5625000   0.1875000   0.6875000), wk =   0.0468750
        k(   26) = (   0.4375000   0.3125000   0.5625000), wk =   0.0468750
        k(   27) = (  -0.0625000  -0.9375000   0.0625000), wk =   0.0234375
        k(   28) = (  -0.1875000  -0.8125000  -0.0625000), wk =   0.0468750
        k(   29) = (  -0.3125000  -0.6875000  -0.1875000), wk =   0.0468750
        k(   30) = (  -0.0625000  -0.6875000   0.0625000), wk =   0.0234375
        k(   31) = (  -0.1875000  -0.5625000  -0.0625000), wk =   0.0468750
        k(   32) = (  -0.0625000  -0.4375000   0.0625000), wk =   0.0234375
        k(   33) = (  -0.1875000   0.1875000   0.1875000), wk =   0.0078125
        k(   34) = (  -0.3125000   0.3125000   0.0625000), wk =   0.0234375
        k(   35) = (  -0.4375000   0.4375000  -0.0625000), wk =   0.0234375
        k(   36) = (   0.4375000  -0.4375000   0.8125000), wk =   0.0234375
        k(   37) = (   0.3125000  -0.3125000   0.6875000), wk =   0.0234375
        k(   38) = (   0.1875000  -0.1875000   0.5625000), wk =   0.0234375
        k(   39) = (  -0.1875000   0.4375000   0.1875000), wk =   0.0234375
        k(   40) = (  -0.3125000   0.5625000   0.0625000), wk =   0.0468750
        k(   41) = (   0.5625000  -0.3125000   0.9375000), wk =   0.0468750
        k(   42) = (   0.4375000  -0.1875000   0.8125000), wk =   0.0468750
        k(   43) = (   0.3125000  -0.0625000   0.6875000), wk =   0.0468750
        k(   44) = (  -0.1875000   0.6875000   0.1875000), wk =   0.0234375
        k(   45) = (   0.6875000  -0.1875000   1.0625000), wk =   0.0468750
        k(   46) = (   0.5625000  -0.0625000   0.9375000), wk =   0.0468750
        k(   47) = (   0.4375000   0.0625000   0.8125000), wk =   0.0468750
        k(   48) = (  -0.1875000  -1.0625000   0.1875000), wk =   0.0234375
        k(   49) = (  -0.3125000  -0.9375000   0.0625000), wk =   0.0468750
        k(   50) = (  -0.1875000  -0.8125000   0.1875000), wk =   0.0234375
        k(   51) = (  -0.3125000   0.3125000   0.3125000), wk =   0.0078125
        k(   52) = (  -0.4375000   0.4375000   0.1875000), wk =   0.0234375
        k(   53) = (   0.4375000  -0.4375000   1.0625000), wk =   0.0234375
        k(   54) = (   0.3125000  -0.3125000   0.9375000), wk =   0.0234375
        k(   55) = (  -0.3125000   0.5625000   0.3125000), wk =   0.0234375
        k(   56) = (   0.5625000  -0.3125000   1.1875000), wk =   0.0468750
        k(   57) = (   0.4375000  -0.1875000   1.0625000), wk =   0.0468750
        k(   58) = (  -0.3125000  -1.1875000   0.3125000), wk =   0.0234375
        k(   59) = (  -0.4375000   0.4375000   0.4375000), wk =   0.0078125
        k(   60) = (   0.4375000  -0.4375000   1.3125000), wk =   0.0234375

     Dense  grid:   110947 G-vectors     FFT dimensions: (  72,  72,  72)

     Smooth grid:    39189 G-vectors     FFT dimensions: (  48,  48,  48)

     Estimated max dynamical RAM per process >      36.23MB

     Estimated total allocated dynamical RAM >     144.91MB

     Initial potential from superposition of free atoms

     starting charge   25.99991, renormalised to   28.00000
     Starting wfc are   18 randomized atomic wfcs

     total cpu time spent up to now is        2.0 secs

     per-process dynamical memory:    38.6 Mb

     Self-consistent Calculation

     iteration #  1     ecut=    70.00 Ry     beta=0.70
     Davidson diagonalization with overlap
     ethr =  1.00E-02,  avg # of iterations =  2.6

     total cpu time spent up to now is        6.5 secs

     total energy              =    -317.49507557 Ry
     Harris-Foulkes estimate   =    -319.55611266 Ry
     estimated scf accuracy    <       2.51310491 Ry

     iteration #  2     ecut=    70.00 Ry     beta=0.70
     Davidson diagonalization with overlap
     ethr =  8.98E-03,  avg # of iterations =  3.0

     total cpu time spent up to now is       11.4 secs

     total energy              =    -318.40309576 Ry
     Harris-Foulkes estimate   =    -318.72084707 Ry
     estimated scf accuracy    <       0.47307007 Ry

     iteration #  3     ecut=    70.00 Ry     beta=0.70
     Davidson diagonalization with overlap
     ethr =  1.69E-03,  avg # of iterations =  2.0

     total cpu time spent up to now is       15.7 secs

     total energy              =    -318.49807893 Ry
     Harris-Foulkes estimate   =    -318.49962262 Ry
     estimated scf accuracy    <       0.00286527 Ry

     iteration #  4     ecut=    70.00 Ry     beta=0.70
     Davidson diagonalization with overlap
     ethr =  1.02E-05,  avg # of iterations =  3.0

     total cpu time spent up to now is       20.2 secs

     total energy              =    -318.49895812 Ry
     Harris-Foulkes estimate   =    -318.49907504 Ry
     estimated scf accuracy    <       0.00017460 Ry

     iteration #  5     ecut=    70.00 Ry     beta=0.70
     Davidson diagonalization with overlap
     ethr =  6.24E-07,  avg # of iterations =  3.0

     total cpu time spent up to now is       24.9 secs

     total energy              =    -318.49901201 Ry
     Harris-Foulkes estimate   =    -318.49901280 Ry
     estimated scf accuracy    <       0.00000172 Ry

     iteration #  6     ecut=    70.00 Ry     beta=0.70
     Davidson diagonalization with overlap
     ethr =  6.13E-09,  avg # of iterations =  4.0

     total cpu time spent up to now is       29.8 secs

     total energy              =    -318.49901284 Ry
     Harris-Foulkes estimate   =    -318.49901287 Ry
     estimated scf accuracy    <       0.00000007 Ry

     iteration #  7     ecut=    70.00 Ry     beta=0.70
     Davidson diagonalization with overlap
     ethr =  2.45E-10,  avg # of iterations =  3.2

     total cpu time spent up to now is       34.6 secs

     End of self-consistent calculation

          k =-0.0625 0.0625 0.0625 (  4942 PWs)   bands (ev):

   -14.6235 -14.6235 -14.6201 -14.5682 -14.5682 -14.3275 -14.3275 -14.3181
   -14.3062 -14.3062  -3.1479   5.4066   6.9676   6.9676

          k =-0.1875 0.1875-0.0625 (  4895 PWs)   bands (ev):

   -14.6353 -14.6304 -14.6166 -14.5571 -14.5502 -14.3505 -14.3413 -14.3158
   -14.3006 -14.2881  -2.9626   4.2353   6.2875   6.8302

          k =-0.3125 0.3125-0.1875 (  4891 PWs)   bands (ev):

   -14.6466 -14.6435 -14.6055 -14.5393 -14.5296 -14.3689 -14.3572 -14.3311
   -14.2835 -14.2761  -2.5222   2.6671   5.7943   6.4077

          k =-0.4375 0.4375-0.3125 (  4908 PWs)   bands (ev):

   -14.6522 -14.6517 -14.5949 -14.5262 -14.5189 -14.3764 -14.3672 -14.3464
   -14.2725 -14.2711  -1.9412   1.3657   5.5485   6.0489

          k = 0.4375-0.4375 0.5625 (  4901 PWs)   bands (ev):

   -14.6553 -14.6515 -14.5921 -14.5200 -14.5192 -14.3754 -14.3730 -14.3495
   -14.2720 -14.2681  -1.6838   0.9219   5.5481   5.8754

          k = 0.3125-0.3125 0.4375 (  4915 PWs)   bands (ev):

   -14.6527 -14.6472 -14.5993 -14.5293 -14.5207 -14.3784 -14.3632 -14.3395
   -14.2779 -14.2705  -2.1332   1.7411   5.7776   5.9250

          k = 0.1875-0.1875 0.3125 (  4895 PWs)   bands (ev):

   -14.6436 -14.6385 -14.6110 -14.5454 -14.5344 -14.3687 -14.3479 -14.3249
   -14.2888 -14.2799  -2.6932   3.1830   6.1944   6.1951

          k = 0.0625-0.0625 0.1875 (  4923 PWs)   bands (ev):

   -14.6295 -14.6267 -14.6206 -14.5639 -14.5556 -14.3486 -14.3279 -14.3146
   -14.3054 -14.2948  -3.0545   4.7489   6.6222   6.6551

          k =-0.0625 0.3125 0.0625 (  4900 PWs)   bands (ev):

   -14.6359 -14.6325 -14.6221 -14.5549 -14.5349 -14.3755 -14.3336 -14.3076
   -14.2999 -14.2880  -2.8686   3.9461   6.1520   6.1673

          k =-0.1875 0.4375-0.0625 (  4897 PWs)   bands (ev):

   -14.6488 -14.6438 -14.6094 -14.5388 -14.5113 -14.4006 -14.3503 -14.3183
   -14.2851 -14.2747  -2.5080   2.8394   5.3807   5.9294

          k =-0.3125 0.5625-0.1875 (  4895 PWs)   bands (ev):

   -14.6629 -14.6526 -14.5873 -14.5210 -14.4973 -14.4113 -14.3691 -14.3439
   -14.2717 -14.2599  -1.9465   1.5989   4.8733   5.6294

          k = 0.5625-0.3125 0.6875 (  4915 PWs)   bands (ev):

   -14.6694 -14.6569 -14.5719 -14.5076 -14.5003 -14.4020 -14.3864 -14.3623
   -14.2653 -14.2531  -1.4896   0.8380   4.6119   5.5626

          k = 0.4375-0.1875 0.5625 (  4906 PWs)   bands (ev):

   -14.6658 -14.6570 -14.5751 -14.5189 -14.4990 -14.4011 -14.3736 -14.3631
   -14.2650 -14.2576  -1.7581   1.2643   4.6155   5.7696

          k = 0.3125-0.0625 0.4375 (  4894 PWs)   bands (ev):

   -14.6536 -14.6512 -14.5946 -14.5349 -14.5109 -14.3937 -14.3593 -14.3370
   -14.2760 -14.2687  -2.3424   2.4078   4.9718   6.1572

          k = 0.1875 0.0625 0.3125 (  4890 PWs)   bands (ev):

   -14.6419 -14.6365 -14.6135 -14.5499 -14.5340 -14.3723 -14.3437 -14.3164
   -14.2948 -14.2808  -2.7797   3.5572   5.8264   6.4500

          k =-0.0625 0.5625 0.0625 (  4899 PWs)   bands (ev):

   -14.6507 -14.6480 -14.6136 -14.5238 -14.4809 -14.4379 -14.3624 -14.3077
   -14.2788 -14.2749  -2.2269   2.3020   5.2632   5.3515

          k =-0.1875 0.6875-0.0625 (  4902 PWs)   bands (ev):

   -14.6630 -14.6578 -14.5894 -14.5030 -14.4632 -14.4562 -14.3838 -14.3341
   -14.2653 -14.2596  -1.7131   1.3939   4.6988   5.0900

          k = 0.6875-0.1875 0.8125 (  4916 PWs)   bands (ev):

   -14.6771 -14.6625 -14.5592 -14.4830 -14.4661 -14.4505 -14.4069 -14.3658
   -14.2585 -14.2438  -1.1400   0.5944   4.1222   5.0592

          k = 0.5625-0.0625 0.6875 (  4913 PWs)   bands (ev):

   -14.6796 -14.6636 -14.5508 -14.4881 -14.4699 -14.4336 -14.4144 -14.3754
   -14.2567 -14.2417  -1.2041   0.6760   3.9093   5.3121

          k = 0.4375 0.0625 0.5625 (  4904 PWs)   bands (ev):

   -14.6687 -14.6597 -14.5683 -14.5182 -14.4892 -14.4120 -14.3748 -14.3690
   -14.2612 -14.2551  -1.7865   1.4320   4.2892   5.7459

          k = 0.3125 0.1875 0.4375 (  4887 PWs)   bands (ev):

   -14.6539 -14.6479 -14.5976 -14.5328 -14.5158 -14.3871 -14.3599 -14.3371
   -14.2781 -14.2691  -2.2709   2.1279   5.3380   6.0637

          k =-0.0625 0.8125 0.0625 (  4897 PWs)   bands (ev):

   -14.6628 -14.6604 -14.5829 -14.5027 -14.4797 -14.4204 -14.4055 -14.3398
   -14.2608 -14.2584  -1.2490   0.7396   4.7315   4.8570

          k = 0.8125-0.0625 0.9375 (  4912 PWs)   bands (ev):

   -14.6709 -14.6655 -14.5511 -14.5209 -14.4558 -14.4305 -14.4018 -14.3723
   -14.2544 -14.2491  -0.6298   0.0215   4.3893   4.7084

          k = 0.6875 0.0625 0.8125 (  4916 PWs)   bands (ev):

   -14.6803 -14.6651 -14.5467 -14.4804 -14.4615 -14.4389 -14.4281 -14.3768
   -14.2549 -14.2401  -0.7616   0.1859   3.9465   4.9468

          k = 0.5625 0.1875 0.6875 (  4913 PWs)   bands (ev):

   -14.6761 -14.6610 -14.5591 -14.4961 -14.4848 -14.4195 -14.4017 -14.3702
   -14.2600 -14.2457  -1.3060   0.7184   4.1694   5.3958

          k = 0.4375 0.3125 0.5625 (  4907 PWs)   bands (ev):

   -14.6607 -14.6532 -14.5849 -14.5195 -14.5112 -14.3864 -14.3732 -14.3546
   -14.2699 -14.2626  -1.7157   1.0560   5.1173   5.8100

          k =-0.0625-0.9375 0.0625 (  4900 PWs)   bands (ev):

   -14.6655 -14.6632 -14.5602 -14.5326 -14.4550 -14.4300 -14.3911 -14.3634
   -14.2566 -14.2544  -0.6483   0.0195   4.6229   4.7554

          k =-0.1875-0.8125-0.0625 (  4900 PWs)   bands (ev):

   -14.6682 -14.6628 -14.5720 -14.4931 -14.4802 -14.4284 -14.4063 -14.3512
   -14.2583 -14.2529  -1.2019   0.6908   4.4937   4.8365

          k =-0.3125-0.6875-0.1875 (  4904 PWs)   bands (ev):

   -14.6711 -14.6579 -14.5742 -14.5037 -14.4772 -14.4361 -14.3860 -14.3533
   -14.2647 -14.2508  -1.5614   1.0859   4.4479   5.2862

          k =-0.0625-0.6875 0.0625 (  4908 PWs)   bands (ev):

   -14.6576 -14.6551 -14.6009 -14.5029 -14.4707 -14.4508 -14.3827 -14.3207
   -14.2685 -14.2657  -1.7776   1.5043   4.9466   5.0576

          k =-0.1875-0.5625-0.0625 (  4903 PWs)   bands (ev):

   -14.6562 -14.6512 -14.6018 -14.5229 -14.4851 -14.4311 -14.3645 -14.3231
   -14.2746 -14.2676  -2.1508   2.1140   4.9981   5.4607

          k =-0.0625-0.4375 0.0625 (  4901 PWs)   bands (ev):

   -14.6431 -14.6401 -14.6205 -14.5414 -14.5094 -14.4057 -14.3457 -14.3031
   -14.2900 -14.2830  -2.5919   3.1207   5.6715   5.7282

          k =-0.1875 0.1875 0.1875 (  4900 PWs)   bands (ev):

   -14.6361 -14.6361 -14.6140 -14.5493 -14.5493 -14.3484 -14.3484 -14.3252
   -14.2891 -14.2891  -2.8724   3.7852   6.5706   6.5706

          k =-0.3125 0.3125 0.0625 (  4881 PWs)   bands (ev):

   -14.6475 -14.6436 -14.6039 -14.5431 -14.5269 -14.3734 -14.3568 -14.3262
   -14.2864 -14.2742  -2.6033   3.0052   5.3877   6.5390

          k =-0.4375 0.4375-0.0625 (  4903 PWs)   bands (ev):

   -14.6606 -14.6562 -14.5802 -14.5294 -14.5035 -14.3944 -14.3676 -14.3560
   -14.2653 -14.2648  -2.0994   1.9244   4.5899   6.1204

          k = 0.4375-0.4375 0.8125 (  4902 PWs)   bands (ev):

   -14.6713 -14.6587 -14.5662 -14.5099 -14.4950 -14.3991 -14.3922 -14.3688
   -14.2624 -14.2516  -1.5348   0.9612   4.3635   5.6990

          k = 0.3125-0.3125 0.6875 (  4905 PWs)   bands (ev):

   -14.6711 -14.6559 -14.5744 -14.5046 -14.4917 -14.4181 -14.3860 -14.3556
   -14.2667 -14.2510  -1.5205   0.9384   4.5424   5.4621

          k = 0.1875-0.1875 0.5625 (  4908 PWs)   bands (ev):

   -14.6605 -14.6493 -14.5974 -14.5221 -14.4908 -14.4232 -14.3662 -14.3293
   -14.2763 -14.2627  -2.0810   1.9116   5.0284   5.4713

          k =-0.1875 0.4375 0.1875 (  4891 PWs)   bands (ev):

   -14.6520 -14.6431 -14.6061 -14.5364 -14.5143 -14.3949 -14.3534 -14.3245
   -14.2844 -14.2715  -2.4279   2.5491   5.5852   5.8112

          k =-0.3125 0.5625 0.0625 (  4905 PWs)   bands (ev):

   -14.6616 -14.6568 -14.5847 -14.5216 -14.4895 -14.4207 -14.3682 -14.3456
   -14.2666 -14.2619  -2.0018   1.8013   4.6287   5.6322

          k = 0.5625-0.3125 0.9375 (  4911 PWs)   bands (ev):

   -14.6748 -14.6643 -14.5561 -14.5012 -14.4702 -14.4371 -14.3941 -14.3729
   -14.2565 -14.2472  -1.4143   0.9447   4.0962   5.2431

          k = 0.4375-0.1875 0.8125 (  4913 PWs)   bands (ev):

   -14.6783 -14.6653 -14.5496 -14.4875 -14.4665 -14.4438 -14.4081 -14.3762
   -14.2555 -14.2427  -1.1122   0.5513   4.0583   5.0288

          k = 0.3125-0.0625 0.6875 (  4896 PWs)   bands (ev):

   -14.6687 -14.6624 -14.5718 -14.5033 -14.4656 -14.4490 -14.3861 -14.3548
   -14.2595 -14.2536  -1.5888   1.1956   4.3798   5.1489

          k =-0.1875 0.6875 0.1875 (  4904 PWs)   bands (ev):

   -14.6680 -14.6556 -14.5846 -14.5031 -14.4671 -14.4506 -14.3845 -14.3402
   -14.2676 -14.2541  -1.6598   1.2766   4.5811   5.2014

          k = 0.6875-0.1875 1.0625 (  4909 PWs)   bands (ev):

   -14.6736 -14.6672 -14.5551 -14.4818 -14.4778 -14.4397 -14.4082 -14.3689
   -14.2536 -14.2473  -1.1142   0.5964   4.2330   4.7775

          k = 0.5625-0.0625 0.9375 (  4915 PWs)   bands (ev):

   -14.6789 -14.6735 -14.5228 -14.4884 -14.4608 -14.4361 -14.4266 -14.3975
   -14.2466 -14.2413  -0.5824   0.0241   4.0603   4.4574

          k = 0.4375 0.0625 0.8125 (  4905 PWs)   bands (ev):

   -14.6781 -14.6695 -14.5405 -14.4818 -14.4640 -14.4480 -14.4142 -14.3832
   -14.2510 -14.2426  -0.9992   0.4670   4.0244   4.7797

          k =-0.1875-1.0625 0.1875 (  4914 PWs)   bands (ev):

   -14.6766 -14.6634 -14.5523 -14.5029 -14.4575 -14.4296 -14.4185 -14.3714
   -14.2565 -14.2436  -0.6759   0.0799   4.1133   4.9208

          k =-0.3125-0.9375 0.0625 (  4914 PWs)   bands (ev):

   -14.6761 -14.6701 -14.5361 -14.5032 -14.4578 -14.4320 -14.4168 -14.3862
   -14.2499 -14.2441  -0.6026   0.0235   4.1782   4.5654

          k =-0.1875-0.8125 0.1875 (  4902 PWs)   bands (ev):

   -14.6737 -14.6606 -14.5683 -14.4814 -14.4809 -14.4387 -14.4064 -14.3557
   -14.2604 -14.2473  -1.1771   0.6521   4.2711   5.0154

          k =-0.3125 0.3125 0.3125 (  4903 PWs)   bands (ev):

   -14.6459 -14.6459 -14.6051 -14.5318 -14.5318 -14.3637 -14.3637 -14.3358
   -14.2783 -14.2783  -2.3632   2.2058   6.1851   6.1851

          k =-0.4375 0.4375 0.1875 (  4906 PWs)   bands (ev):

   -14.6572 -14.6543 -14.5864 -14.5283 -14.5105 -14.3866 -14.3661 -14.3528
   -14.2684 -14.2673  -2.0436   1.6848   4.9713   6.0980

          k = 0.4375-0.4375 1.0625 (  4909 PWs)   bands (ev):

   -14.6754 -14.6611 -14.5583 -14.5062 -14.4827 -14.4118 -14.4004 -14.3725
   -14.2594 -14.2472  -1.5154   1.0496   4.0389   5.6555

          k = 0.3125-0.3125 0.9375 (  4909 PWs)   bands (ev):

   -14.6816 -14.6630 -14.5511 -14.4666 -14.4654 -14.4516 -14.4240 -14.3736
   -14.2570 -14.2391  -0.9780   0.4161   3.8538   5.2338

          k =-0.3125 0.5625 0.3125 (  4900 PWs)   bands (ev):

   -14.6620 -14.6509 -14.5882 -14.5201 -14.5070 -14.3976 -14.3709 -14.3459
   -14.2734 -14.2608  -1.8448   1.3144   5.1299   5.6733

          k = 0.5625-0.3125 1.1875 (  4910 PWs)   bands (ev):

   -14.6733 -14.6609 -14.5629 -14.5039 -14.4837 -14.4223 -14.3903 -14.3679
   -14.2606 -14.2488  -1.4349   0.8824   4.3029   5.3548

          k = 0.4375-0.1875 1.0625 (  4910 PWs)   bands (ev):

   -14.6808 -14.6682 -14.5389 -14.4738 -14.4612 -14.4500 -14.4243 -14.3839
   -14.2520 -14.2398  -0.8751   0.3222   3.9187   4.8580

          k =-0.3125-1.1875 0.3125 (  4909 PWs)   bands (ev):

   -14.6780 -14.6604 -14.5606 -14.4852 -14.4770 -14.4372 -14.4054 -14.3661
   -14.2606 -14.2433  -1.2025   0.6237   4.0964   5.3116

          k =-0.4375 0.4375 0.4375 (  4907 PWs)   bands (ev):

   -14.6503 -14.6503 -14.5986 -14.5232 -14.5232 -14.3705 -14.3705 -14.3437
   -14.2734 -14.2734  -1.8115   1.0897   5.9718   5.9718

          k = 0.4375-0.4375 1.3125 (  4903 PWs)   bands (ev):

   -14.6639 -14.6549 -14.5792 -14.5147 -14.5095 -14.3839 -14.3824 -14.3603
   -14.2674 -14.2594  -1.5875   0.8882   4.9084   5.7777

     highest occupied level (ev):     6.9676

!    total energy              =    -318.49901287 Ry
     Harris-Foulkes estimate   =    -318.49901287 Ry
     estimated scf accuracy    <          2.6E-09 Ry

     The total energy is the sum of the following terms:

     one-electron contribution =    -162.00409501 Ry
     hartree contribution      =      97.52389226 Ry
     xc contribution           =     -85.96271515 Ry
     ewald contribution        =    -168.05609497 Ry

     convergence has been achieved in   7 iterations


     Computing stress (Cartesian axis) and pressure

          total   stress  (Ry/bohr**3)                   (kbar)     P=   -3.17
  -0.00002154   0.00000000   0.00000000         -3.17      0.00      0.00
   0.00000000  -0.00002154  -0.00000000          0.00     -3.17     -0.00
   0.00000000  -0.00000000  -0.00002154          0.00     -0.00     -3.17


     Writing output data file sn.alpha.70.save

     init_run     :      1.90s CPU      1.97s WALL (       1 calls)
     electrons    :     31.60s CPU     32.61s WALL (       1 calls)
     stress       :      1.76s CPU      1.80s WALL (       1 calls)

     Called by init_run:
     wfcinit      :      1.33s CPU      1.36s WALL (       1 calls)
     potinit      :      0.11s CPU      0.12s WALL (       1 calls)

     Called by electrons:
     c_bands      :     24.50s CPU     25.05s WALL (       7 calls)
     sum_band     :      5.55s CPU      5.81s WALL (       7 calls)
     v_of_rho     :      0.70s CPU      0.73s WALL (       8 calls)
     newd         :      0.92s CPU      1.03s WALL (       8 calls)
     mix_rho      :      0.07s CPU      0.08s WALL (       7 calls)

     Called by c_bands:
     init_us_2    :      0.74s CPU      0.75s WALL (     960 calls)
     cegterg      :     23.25s CPU     23.80s WALL (     420 calls)

     Called by sum_band:
     sum_band:bec :      0.00s CPU      0.00s WALL (     420 calls)
     addusdens    :      1.03s CPU      1.21s WALL (       7 calls)

     Called by *egterg:
     h_psi        :     20.51s CPU     21.06s WALL (    1727 calls)
     s_psi        :      0.43s CPU      0.43s WALL (    1727 calls)
     g_psi        :      0.13s CPU      0.13s WALL (    1247 calls)
     cdiaghg      :      0.74s CPU      0.74s WALL (    1667 calls)

     Called by h_psi:
     h_psi:pot    :     20.20s CPU     20.74s WALL (    1727 calls)
     h_psi:calbec :      0.82s CPU      0.83s WALL (    1727 calls)
     vloc_psi     :     18.75s CPU     19.27s WALL (    1727 calls)
     add_vuspsi   :      0.62s CPU      0.63s WALL (    1727 calls)

     General routines
     calbec       :      1.09s CPU      1.11s WALL (    2207 calls)
     fft          :      0.44s CPU      0.47s WALL (     138 calls)
     ffts         :      0.01s CPU      0.01s WALL (      15 calls)
     fftw         :     13.83s CPU     14.26s WALL (   45612 calls)
     interpolate  :      0.08s CPU      0.08s WALL (      15 calls)
     davcio       :      0.00s CPU      0.00s WALL (      60 calls)

     Parallel routines
     fft_scatter  :      3.05s CPU      3.10s WALL (   45765 calls)

     PWSCF        :    35.44s CPU        37.88s WALL


   This run was terminated on:  13: 2:12  12Nov2017            

=------------------------------------------------------------------------------=
   JOB DONE.
=------------------------------------------------------------------------------=
