
     Program PWSCF v.6.1 (svn rev. 13369) starts on 12Nov2017 at 12:58:46 

     This program is part of the open-source Quantum ESPRESSO suite
     for quantum simulation of materials; please cite
         "P. Giannozzi et al., J. Phys.:Condens. Matter 21 395502 (2009);
          URL http://www.quantum-espresso.org", 
     in publications or presentations arising from this work. More details at
     http://www.quantum-espresso.org/quote

     Parallel version (MPI), running on     4 processors
     R & G space division:  proc/nbgrp/npool/nimage =       4
     Waiting for input...
     Reading input from standard input
     Message from routine read_cards :
     DEPRECATED: no units specified in ATOMIC_POSITIONS card
     Message from routine read_cards :
     ATOMIC_POSITIONS: units set to alat

     Current dimensions of program PWSCF are:
     Max number of different atomic species (ntypx) = 10
     Max number of k-points (npk) =  40000
     Max angular momentum in pseudopotentials (lmaxx) =  3

     Subspace diagonalization in iterative solution of the eigenvalue problem:
     a serial algorithm will be used


     Parallelization info
     --------------------
     sticks:   dense  smooth     PW     G-vecs:    dense   smooth      PW
     Min         171      87     30                 3009     1068     222
     Max         172      88     31                 3011     1071     225
     Sum         685     349    121                12039     4279     893



     bravais-lattice index     =            2
     lattice parameter (alat)  =      12.5650  a.u.
     unit-cell volume          =     495.9381 (a.u.)^3
     number of atoms/cell      =            2
     number of atomic types    =            1
     number of electrons       =        28.00
     number of Kohn-Sham states=           14
     kinetic-energy cutoff     =      16.0000  Ry
     charge density cutoff     =     128.0000  Ry
     convergence threshold     =      1.0E-08
     mixing beta               =       0.7000
     number of iterations used =            8  plain     mixing
     Exchange-correlation      =  SLA  PW   PBX  PBC ( 1  4  3  4 0 0)

     celldm(1)=  12.565000  celldm(2)=   0.000000  celldm(3)=   0.000000
     celldm(4)=   0.000000  celldm(5)=   0.000000  celldm(6)=   0.000000

     crystal axes: (cart. coord. in units of alat)
               a(1) = (  -0.500000   0.000000   0.500000 )  
               a(2) = (   0.000000   0.500000   0.500000 )  
               a(3) = (  -0.500000   0.500000   0.000000 )  

     reciprocal axes: (cart. coord. in units 2 pi/alat)
               b(1) = ( -1.000000 -1.000000  1.000000 )  
               b(2) = (  1.000000  1.000000  1.000000 )  
               b(3) = ( -1.000000  1.000000 -1.000000 )  


     PseudoPot. # 1 for Sn read from file:
     /home/s1333534/quantum_espresso/qe-6.1/pseudo/sn_pbe_v1.4.uspp.F.UPF
     MD5 check sum: 469debedee59599fedebd795477fea03
     Pseudo is Ultrasoft + core correction, Zval = 14.0
     Generated by new atomic code, or converted to UPF format
     Using radial grid of  891 points,  6 beta functions with: 
                l(1) =   0
                l(2) =   0
                l(3) =   1
                l(4) =   1
                l(5) =   2
                l(6) =   2
     Q(r) pseudized with  8 coefficients,  rinner =    1.350   1.350   1.350
                                                       1.350   1.350

     atomic species   valence    mass     pseudopotential
        Sn            14.00   118.71000     Sn( 1.00)

     48 Sym. Ops., with inversion, found (24 have fractional translation)



   Cartesian axes

     site n.     atom                  positions (alat units)
         1           Sn  tau(   1) = (   0.0000000   0.0000000   0.0000000  )
         2           Sn  tau(   2) = (   0.2500000   0.2500000   0.2500000  )

     number of k points=    60
                       cart. coord. in units 2pi/alat
        k(    1) = (  -0.0625000   0.0625000   0.0625000), wk =   0.0078125
        k(    2) = (  -0.1875000   0.1875000  -0.0625000), wk =   0.0234375
        k(    3) = (  -0.3125000   0.3125000  -0.1875000), wk =   0.0234375
        k(    4) = (  -0.4375000   0.4375000  -0.3125000), wk =   0.0234375
        k(    5) = (   0.4375000  -0.4375000   0.5625000), wk =   0.0234375
        k(    6) = (   0.3125000  -0.3125000   0.4375000), wk =   0.0234375
        k(    7) = (   0.1875000  -0.1875000   0.3125000), wk =   0.0234375
        k(    8) = (   0.0625000  -0.0625000   0.1875000), wk =   0.0234375
        k(    9) = (  -0.0625000   0.3125000   0.0625000), wk =   0.0234375
        k(   10) = (  -0.1875000   0.4375000  -0.0625000), wk =   0.0468750
        k(   11) = (  -0.3125000   0.5625000  -0.1875000), wk =   0.0468750
        k(   12) = (   0.5625000  -0.3125000   0.6875000), wk =   0.0468750
        k(   13) = (   0.4375000  -0.1875000   0.5625000), wk =   0.0468750
        k(   14) = (   0.3125000  -0.0625000   0.4375000), wk =   0.0468750
        k(   15) = (   0.1875000   0.0625000   0.3125000), wk =   0.0468750
        k(   16) = (  -0.0625000   0.5625000   0.0625000), wk =   0.0234375
        k(   17) = (  -0.1875000   0.6875000  -0.0625000), wk =   0.0468750
        k(   18) = (   0.6875000  -0.1875000   0.8125000), wk =   0.0468750
        k(   19) = (   0.5625000  -0.0625000   0.6875000), wk =   0.0468750
        k(   20) = (   0.4375000   0.0625000   0.5625000), wk =   0.0468750
        k(   21) = (   0.3125000   0.1875000   0.4375000), wk =   0.0468750
        k(   22) = (  -0.0625000   0.8125000   0.0625000), wk =   0.0234375
        k(   23) = (   0.8125000  -0.0625000   0.9375000), wk =   0.0468750
        k(   24) = (   0.6875000   0.0625000   0.8125000), wk =   0.0468750
        k(   25) = (   0.5625000   0.1875000   0.6875000), wk =   0.0468750
        k(   26) = (   0.4375000   0.3125000   0.5625000), wk =   0.0468750
        k(   27) = (  -0.0625000  -0.9375000   0.0625000), wk =   0.0234375
        k(   28) = (  -0.1875000  -0.8125000  -0.0625000), wk =   0.0468750
        k(   29) = (  -0.3125000  -0.6875000  -0.1875000), wk =   0.0468750
        k(   30) = (  -0.0625000  -0.6875000   0.0625000), wk =   0.0234375
        k(   31) = (  -0.1875000  -0.5625000  -0.0625000), wk =   0.0468750
        k(   32) = (  -0.0625000  -0.4375000   0.0625000), wk =   0.0234375
        k(   33) = (  -0.1875000   0.1875000   0.1875000), wk =   0.0078125
        k(   34) = (  -0.3125000   0.3125000   0.0625000), wk =   0.0234375
        k(   35) = (  -0.4375000   0.4375000  -0.0625000), wk =   0.0234375
        k(   36) = (   0.4375000  -0.4375000   0.8125000), wk =   0.0234375
        k(   37) = (   0.3125000  -0.3125000   0.6875000), wk =   0.0234375
        k(   38) = (   0.1875000  -0.1875000   0.5625000), wk =   0.0234375
        k(   39) = (  -0.1875000   0.4375000   0.1875000), wk =   0.0234375
        k(   40) = (  -0.3125000   0.5625000   0.0625000), wk =   0.0468750
        k(   41) = (   0.5625000  -0.3125000   0.9375000), wk =   0.0468750
        k(   42) = (   0.4375000  -0.1875000   0.8125000), wk =   0.0468750
        k(   43) = (   0.3125000  -0.0625000   0.6875000), wk =   0.0468750
        k(   44) = (  -0.1875000   0.6875000   0.1875000), wk =   0.0234375
        k(   45) = (   0.6875000  -0.1875000   1.0625000), wk =   0.0468750
        k(   46) = (   0.5625000  -0.0625000   0.9375000), wk =   0.0468750
        k(   47) = (   0.4375000   0.0625000   0.8125000), wk =   0.0468750
        k(   48) = (  -0.1875000  -1.0625000   0.1875000), wk =   0.0234375
        k(   49) = (  -0.3125000  -0.9375000   0.0625000), wk =   0.0468750
        k(   50) = (  -0.1875000  -0.8125000   0.1875000), wk =   0.0234375
        k(   51) = (  -0.3125000   0.3125000   0.3125000), wk =   0.0078125
        k(   52) = (  -0.4375000   0.4375000   0.1875000), wk =   0.0234375
        k(   53) = (   0.4375000  -0.4375000   1.0625000), wk =   0.0234375
        k(   54) = (   0.3125000  -0.3125000   0.9375000), wk =   0.0234375
        k(   55) = (  -0.3125000   0.5625000   0.3125000), wk =   0.0234375
        k(   56) = (   0.5625000  -0.3125000   1.1875000), wk =   0.0468750
        k(   57) = (   0.4375000  -0.1875000   1.0625000), wk =   0.0468750
        k(   58) = (  -0.3125000  -1.1875000   0.3125000), wk =   0.0234375
        k(   59) = (  -0.4375000   0.4375000   0.4375000), wk =   0.0078125
        k(   60) = (   0.4375000  -0.4375000   1.3125000), wk =   0.0234375

     Dense  grid:    12039 G-vectors     FFT dimensions: (  32,  32,  32)

     Smooth grid:     4279 G-vectors     FFT dimensions: (  24,  24,  24)

     Estimated max dynamical RAM per process >       3.91MB

     Estimated total allocated dynamical RAM >      15.62MB

     Check: negative/imaginary core charge=   -0.000015    0.000000

     Initial potential from superposition of free atoms

     starting charge   25.99991, renormalised to   28.00000
     Starting wfc are   18 randomized atomic wfcs

     total cpu time spent up to now is        0.4 secs

     per-process dynamical memory:     9.7 Mb

     Self-consistent Calculation

     iteration #  1     ecut=    16.00 Ry     beta=0.70
     Davidson diagonalization with overlap
     ethr =  1.00E-02,  avg # of iterations =  2.0

     total cpu time spent up to now is        0.8 secs

     total energy              =    -317.07947784 Ry
     Harris-Foulkes estimate   =    -319.00341434 Ry
     estimated scf accuracy    <       2.39071815 Ry

     iteration #  2     ecut=    16.00 Ry     beta=0.70
     Davidson diagonalization with overlap
     ethr =  8.54E-03,  avg # of iterations =  2.2

     total cpu time spent up to now is        1.3 secs

     total energy              =    -317.92715158 Ry
     Harris-Foulkes estimate   =    -318.22651218 Ry
     estimated scf accuracy    <       0.44382285 Ry

     iteration #  3     ecut=    16.00 Ry     beta=0.70
     Davidson diagonalization with overlap
     ethr =  1.59E-03,  avg # of iterations =  2.0

     total cpu time spent up to now is        1.7 secs

     total energy              =    -318.01528145 Ry
     Harris-Foulkes estimate   =    -318.01701015 Ry
     estimated scf accuracy    <       0.00342264 Ry

     iteration #  4     ecut=    16.00 Ry     beta=0.70
     Davidson diagonalization with overlap
     ethr =  1.22E-05,  avg # of iterations =  2.6

     total cpu time spent up to now is        2.2 secs

     total energy              =    -318.01610135 Ry
     Harris-Foulkes estimate   =    -318.01626393 Ry
     estimated scf accuracy    <       0.00022984 Ry

     iteration #  5     ecut=    16.00 Ry     beta=0.70
     Davidson diagonalization with overlap
     ethr =  8.21E-07,  avg # of iterations =  2.2

     total cpu time spent up to now is        2.6 secs

     total energy              =    -318.01617057 Ry
     Harris-Foulkes estimate   =    -318.01617434 Ry
     estimated scf accuracy    <       0.00000611 Ry

     iteration #  6     ecut=    16.00 Ry     beta=0.70
     Davidson diagonalization with overlap
     ethr =  2.18E-08,  avg # of iterations =  2.7

     total cpu time spent up to now is        3.1 secs

     total energy              =    -318.01617238 Ry
     Harris-Foulkes estimate   =    -318.01617238 Ry
     estimated scf accuracy    <       0.00000003 Ry

     iteration #  7     ecut=    16.00 Ry     beta=0.70
     Davidson diagonalization with overlap
     ethr =  9.60E-11,  avg # of iterations =  4.0

     total cpu time spent up to now is        3.8 secs

     End of self-consistent calculation

          k =-0.0625 0.0625 0.0625 (   534 PWs)   bands (ev):

   -14.1438 -14.1438 -14.1397 -14.0925 -14.0925 -13.8386 -13.8386 -13.8325
   -13.8144 -13.8144  -3.1674   5.4522   7.0071   7.0071

          k =-0.1875 0.1875-0.0625 (   541 PWs)   bands (ev):

   -14.1569 -14.1510 -14.1371 -14.0799 -14.0709 -13.8619 -13.8520 -13.8269
   -13.8109 -13.7968  -2.9841   4.2742   6.3210   6.8688

          k =-0.3125 0.3125-0.1875 (   540 PWs)   bands (ev):

   -14.1686 -14.1649 -14.1264 -14.0600 -14.0487 -13.8797 -13.8675 -13.8428
   -13.7936 -13.7849  -2.5346   2.6846   5.8225   6.4371

          k =-0.4375 0.4375-0.3125 (   539 PWs)   bands (ev):

   -14.1742 -14.1741 -14.1160 -14.0462 -14.0379 -13.8862 -13.8761 -13.8604
   -13.7820 -13.7796  -1.9461   1.3812   5.5747   6.0743

          k = 0.4375-0.4375 0.5625 (   544 PWs)   bands (ev):

   -14.1777 -14.1727 -14.1138 -14.0396 -14.0382 -13.8847 -13.8817 -13.8641
   -13.7819 -13.7770  -1.6846   0.9304   5.5713   5.8914

          k = 0.3125-0.3125 0.4375 (   536 PWs)   bands (ev):

   -14.1751 -14.1687 -14.1204 -14.0494 -14.0395 -13.8890 -13.8714 -13.8523
   -13.7879 -13.7795  -2.1353   1.7577   5.8043   5.9489

          k = 0.1875-0.1875 0.3125 (   541 PWs)   bands (ev):

   -14.1655 -14.1596 -14.1318 -14.0666 -14.0537 -13.8807 -13.8566 -13.8370
   -13.7986 -13.7886  -2.7090   3.2056   6.2250   6.2262

          k = 0.0625-0.0625 0.1875 (   535 PWs)   bands (ev):

   -14.1505 -14.1467 -14.1407 -14.0879 -14.0769 -13.8608 -13.8364 -13.8278
   -13.8156 -13.8027  -3.0745   4.7978   6.6577   6.6912

          k =-0.0625 0.3125 0.0625 (   545 PWs)   bands (ev):

   -14.1576 -14.1530 -14.1437 -14.0785 -14.0539 -13.8891 -13.8401 -13.8194
   -13.8118 -13.7955  -2.8907   3.9776   6.1821   6.1977

          k =-0.1875 0.4375-0.0625 (   538 PWs)   bands (ev):

   -14.1712 -14.1649 -14.1313 -14.0607 -14.0282 -13.9151 -13.8581 -13.8281
   -13.7963 -13.7832  -2.5198   2.8564   5.4100   5.9565

          k =-0.3125 0.5625-0.1875 (   535 PWs)   bands (ev):

   -14.1862 -14.1747 -14.1085 -14.0411 -14.0143 -13.9260 -13.8778 -13.8556
   -13.7814 -13.7688  -1.9503   1.6183   4.9013   5.6553

          k = 0.5625-0.3125 0.6875 (   541 PWs)   bands (ev):

   -14.1934 -14.1794 -14.0932 -14.0268 -14.0186 -13.9158 -13.8967 -13.8745
   -13.7746 -13.7621  -1.4911   0.8465   4.6360   5.5845

          k = 0.4375-0.1875 0.5625 (   538 PWs)   bands (ev):

   -14.1892 -14.1797 -14.0956 -14.0392 -14.0164 -13.9142 -13.8828 -13.8764
   -13.7740 -13.7669  -1.7584   1.2750   4.6408   5.7921

          k = 0.3125-0.0625 0.4375 (   540 PWs)   bands (ev):

   -14.1763 -14.1733 -14.1155 -14.0565 -14.0283 -13.9073 -13.8690 -13.8476
   -13.7867 -13.7774  -2.3533   2.4237   5.0008   6.1840

          k = 0.1875 0.0625 0.3125 (   545 PWs)   bands (ev):

   -14.1641 -14.1573 -14.1345 -14.0724 -14.0530 -13.8853 -13.8528 -13.8262
   -13.8065 -13.7892  -2.7980   3.5764   5.8558   6.4796

          k =-0.0625 0.5625 0.0625 (   544 PWs)   bands (ev):

   -14.1729 -14.1696 -14.1374 -14.0449 -13.9960 -13.9552 -13.8705 -13.8153
   -13.7897 -13.7851  -2.2426   2.3211   5.2864   5.3754

          k =-0.1875 0.6875-0.0625 (   535 PWs)   bands (ev):

   -14.1861 -14.1797 -14.1123 -14.0223 -13.9817 -13.9707 -13.8936 -13.8440
   -13.7754 -13.7686  -1.7144   1.4123   4.7260   5.1145

          k = 0.6875-0.1875 0.8125 (   536 PWs)   bands (ev):

   -14.2017 -14.1853 -14.0811 -14.0008 -13.9842 -13.9661 -13.9189 -13.8766
   -13.7681 -13.7525  -1.1376   0.6051   4.1471   5.0824

          k = 0.5625-0.0625 0.6875 (   535 PWs)   bands (ev):

   -14.2043 -14.1872 -14.0715 -14.0064 -13.9858 -13.9502 -13.9285 -13.8860
   -13.7661 -13.7504  -1.2034   0.6875   3.9356   5.3352

          k = 0.4375 0.0625 0.5625 (   536 PWs)   bands (ev):

   -14.1924 -14.1830 -14.0882 -14.0387 -14.0057 -13.9263 -13.8868 -13.8802
   -13.7703 -13.7642  -1.7884   1.4477   4.3172   5.7718

          k = 0.3125 0.1875 0.4375 (   538 PWs)   bands (ev):

   -14.1763 -14.1696 -14.1186 -14.0533 -14.0338 -13.8996 -13.8688 -13.8487
   -13.7884 -13.7779  -2.2795   2.1484   5.3668   6.0915

          k =-0.0625 0.8125 0.0625 (   539 PWs)   bands (ev):

   -14.1851 -14.1827 -14.1068 -14.0237 -13.9970 -13.9327 -13.9170 -13.8487
   -13.7716 -13.7688  -1.2483   0.7538   4.7532   4.8796

          k = 0.8125-0.0625 0.9375 (   530 PWs)   bands (ev):

   -14.1941 -14.1879 -14.0735 -14.0420 -13.9709 -13.9439 -13.9135 -13.8825
   -13.7644 -13.7584  -0.6202   0.0354   4.4146   4.7326

          k = 0.6875 0.0625 0.8125 (   530 PWs)   bands (ev):

   -14.2049 -14.1881 -14.0685 -13.9994 -13.9773 -13.9540 -13.9419 -13.8872
   -13.7646 -13.7486  -0.7540   0.1993   3.9724   4.9702

          k = 0.5625 0.1875 0.6875 (   537 PWs)   bands (ev):

   -14.2005 -14.1841 -14.0802 -14.0148 -14.0021 -13.9353 -13.9138 -13.8813
   -13.7693 -13.7546  -1.3055   0.7288   4.1954   5.4177

          k = 0.4375 0.3125 0.5625 (   540 PWs)   bands (ev):

   -14.1835 -14.1752 -14.1061 -14.0393 -14.0296 -13.8976 -13.8821 -13.8682
   -13.7793 -13.7717  -1.7172   1.0672   5.1429   5.8308

          k =-0.0625-0.9375 0.0625 (   532 PWs)   bands (ev):

   -14.1880 -14.1855 -14.0833 -14.0549 -13.9699 -13.9435 -13.9021 -13.8733
   -13.7672 -13.7645  -0.6400   0.0333   4.6474   4.7790

          k =-0.1875-0.8125-0.0625 (   533 PWs)   bands (ev):

   -14.1913 -14.1850 -14.0950 -14.0132 -13.9975 -13.9415 -13.9178 -13.8613
   -13.7686 -13.7619  -1.1982   0.7092   4.5207   4.8584

          k =-0.3125-0.6875-0.1875 (   536 PWs)   bands (ev):

   -14.1953 -14.1802 -14.0959 -14.0227 -13.9934 -13.9526 -13.8960 -13.8646
   -13.7744 -13.7595  -1.5597   1.0993   4.4748   5.3100

          k =-0.0625-0.6875 0.0625 (   537 PWs)   bands (ev):

   -14.1798 -14.1767 -14.1249 -14.0222 -13.9898 -13.9644 -13.8923 -13.8285
   -13.7794 -13.7757  -1.7811   1.5229   4.9716   5.0790

          k =-0.1875-0.5625-0.0625 (   540 PWs)   bands (ev):

   -14.1789 -14.1731 -14.1244 -14.0439 -14.0008 -13.9478 -13.8730 -13.8329
   -13.7853 -13.7768  -2.1602   2.1316   5.0239   5.4849

          k =-0.0625-0.4375 0.0625 (   540 PWs)   bands (ev):

   -14.1648 -14.1608 -14.1434 -14.0639 -14.0260 -13.9208 -13.8525 -13.8122
   -13.8018 -13.7914  -2.6071   3.1427   5.6981   5.7533

          k =-0.1875 0.1875 0.1875 (   540 PWs)   bands (ev):

   -14.1572 -14.1572 -14.1343 -14.0701 -14.0701 -13.8586 -13.8586 -13.8387
   -13.7982 -13.7982  -2.8930   3.8236   6.6061   6.6061

          k =-0.3125 0.3125 0.0625 (   541 PWs)   bands (ev):

   -14.1700 -14.1646 -14.1246 -14.0647 -14.0454 -13.8854 -13.8681 -13.8352
   -13.7978 -13.7828  -2.6176   3.0234   5.4174   6.5701

          k =-0.4375 0.4375-0.0625 (   539 PWs)   bands (ev):

   -14.1831 -14.1792 -14.1004 -14.0507 -14.0208 -13.9070 -13.8803 -13.8662
   -13.7753 -13.7739  -2.1066   1.9406   4.6187   6.1455

          k = 0.4375-0.4375 0.8125 (   538 PWs)   bands (ev):

   -14.1952 -14.1816 -14.0867 -14.0296 -14.0124 -13.9109 -13.9066 -13.8795
   -13.7716 -13.7607  -1.5345   0.9705   4.3895   5.7239

          k = 0.3125-0.3125 0.6875 (   540 PWs)   bands (ev):

   -14.1950 -14.1782 -14.0963 -14.0235 -14.0095 -13.9332 -13.8962 -13.8670
   -13.7766 -13.7600  -1.5212   0.9488   4.5692   5.4833

          k = 0.1875-0.1875 0.5625 (   537 PWs)   bands (ev):

   -14.1837 -14.1711 -14.1197 -14.0424 -14.0069 -13.9393 -13.8749 -13.8396
   -13.7868 -13.7716  -2.0894   1.9311   5.0571   5.4957

          k =-0.1875 0.4375 0.1875 (   539 PWs)   bands (ev):

   -14.1746 -14.1639 -14.1279 -14.0576 -14.0318 -13.9088 -13.8613 -13.8356
   -13.7947 -13.7801  -2.4407   2.5688   5.6148   5.8386

          k =-0.3125 0.5625 0.0625 (   535 PWs)   bands (ev):

   -14.1844 -14.1796 -14.1057 -14.0424 -14.0057 -13.9363 -13.8767 -13.8577
   -13.7763 -13.7709  -2.0056   1.8190   4.6583   5.6567

          k = 0.5625-0.3125 0.9375 (   538 PWs)   bands (ev):

   -14.1993 -14.1880 -14.0764 -14.0205 -13.9858 -13.9537 -13.9065 -13.8848
   -13.7654 -13.7560  -1.4159   0.9570   4.1229   5.2690

          k = 0.4375-0.1875 0.8125 (   537 PWs)   bands (ev):

   -14.2029 -14.1889 -14.0706 -14.0057 -13.9828 -13.9609 -13.9205 -13.8879
   -13.7647 -13.7515  -1.1129   0.5614   4.0852   5.0515

          k = 0.3125-0.0625 0.6875 (   537 PWs)   bands (ev):

   -14.1924 -14.1854 -14.0933 -14.0227 -13.9809 -13.9665 -13.8962 -13.8667
   -13.7685 -13.7627  -1.5906   1.2126   4.4074   5.1720

          k =-0.1875 0.6875 0.1875 (   537 PWs)   bands (ev):

   -14.1919 -14.1773 -14.1073 -14.0222 -13.9831 -13.9676 -13.8946 -13.8502
   -13.7781 -13.7631  -1.6609   1.2926   4.6062   5.2220

          k = 0.6875-0.1875 1.0625 (   534 PWs)   bands (ev):

   -14.1978 -14.1904 -14.0767 -13.9995 -13.9964 -13.9536 -13.9201 -13.8805
   -13.7627 -13.7560  -1.1104   0.6108   4.2598   4.8021

          k = 0.5625-0.0625 0.9375 (   527 PWs)   bands (ev):

   -14.2035 -14.1978 -14.0435 -14.0076 -13.9771 -13.9508 -13.9401 -13.9099
   -13.7552 -13.7501  -0.5704   0.0381   4.0872   4.4821

          k = 0.4375 0.0625 0.8125 (   532 PWs)   bands (ev):

   -14.2025 -14.1931 -14.0612 -13.9996 -13.9822 -13.9627 -13.9274 -13.8952
   -13.7598 -13.7511  -0.9922   0.4796   4.0511   4.8031

          k =-0.1875-1.0625 0.1875 (   532 PWs)   bands (ev):

   -14.2009 -14.1857 -14.0749 -14.0229 -13.9732 -13.9433 -13.9322 -13.8817
   -13.7668 -13.7522  -0.6685   0.0944   4.1395   4.9425

          k =-0.3125-0.9375 0.0625 (   529 PWs)   bands (ev):

   -14.1999 -14.1937 -14.0573 -14.0232 -13.9731 -13.9461 -13.9300 -13.8978
   -13.7590 -13.7530  -0.5939   0.0381   4.2032   4.5900

          k =-0.1875-0.8125 0.1875 (   534 PWs)   bands (ev):

   -14.1975 -14.1830 -14.0911 -14.0008 -13.9984 -13.9528 -13.9179 -13.8660
   -13.7706 -13.7561  -1.1718   0.6639   4.2965   5.0393

          k =-0.3125 0.3125 0.3125 (   537 PWs)   bands (ev):

   -14.1676 -14.1676 -14.1264 -14.0513 -14.0513 -13.8729 -13.8729 -13.8495
   -13.7875 -13.7875  -2.3759   2.2282   6.2151   6.2151

          k =-0.4375 0.4375 0.1875 (   536 PWs)   bands (ev):

   -14.1792 -14.1770 -14.1066 -14.0492 -14.0285 -13.8978 -13.8765 -13.8648
   -13.7779 -13.7762  -2.0457   1.7013   4.9996   6.1216

          k = 0.4375-0.4375 1.0625 (   536 PWs)   bands (ev):

   -14.1999 -14.1845 -14.0784 -14.0259 -13.9989 -13.9252 -13.9162 -13.8824
   -13.7690 -13.7560  -1.5142   1.0596   4.0660   5.6796

          k = 0.3125-0.3125 0.9375 (   531 PWs)   bands (ev):

   -14.2064 -14.1864 -14.0727 -13.9826 -13.9824 -13.9691 -13.9377 -13.8836
   -13.7669 -13.7477  -0.9732   0.4284   3.8808   5.2560

          k =-0.3125 0.5625 0.3125 (   536 PWs)   bands (ev):

   -14.1850 -14.1725 -14.1097 -14.0398 -14.0249 -13.9106 -13.8792 -13.8580
   -13.7835 -13.7698  -1.8449   1.3305   5.1565   5.6952

          k = 0.5625-0.3125 1.1875 (   540 PWs)   bands (ev):

   -14.1976 -14.1841 -14.0839 -14.0233 -14.0008 -13.9377 -13.9015 -13.8800
   -13.7698 -13.7578  -1.4360   0.8918   4.3274   5.3779

          k = 0.4375-0.1875 1.0625 (   531 PWs)   bands (ev):

   -14.2055 -14.1919 -14.0598 -13.9913 -13.9791 -13.9652 -13.9383 -13.8954
   -13.7609 -13.7484  -0.8684   0.3366   3.9455   4.8818

          k =-0.3125-1.1875 0.3125 (   538 PWs)   bands (ev):

   -14.2026 -14.1835 -14.0824 -14.0028 -13.9946 -13.9539 -13.9175 -13.8768
   -13.7702 -13.7521  -1.2025   0.6333   4.1230   5.3344

          k =-0.4375 0.4375 0.4375 (   547 PWs)   bands (ev):

   -14.1723 -14.1723 -14.1198 -14.0428 -14.0428 -13.8793 -13.8793 -13.8583
   -13.7828 -13.7828  -1.8186   1.0993   5.9896   5.9896

          k = 0.4375-0.4375 1.3125 (   545 PWs)   bands (ev):

   -14.1874 -14.1775 -14.1005 -14.0343 -14.0281 -13.8941 -13.8941 -13.8733
   -13.7767 -13.7686  -1.5920   0.8954   4.9325   5.7982

     highest occupied level (ev):     7.0071

!    total energy              =    -318.01617242 Ry
     Harris-Foulkes estimate   =    -318.01617242 Ry
     estimated scf accuracy    <          5.6E-09 Ry

     The total energy is the sum of the following terms:

     one-electron contribution =    -161.56932263 Ry
     hartree contribution      =      97.74379006 Ry
     xc contribution           =     -86.13454485 Ry
     ewald contribution        =    -168.05609501 Ry

     convergence has been achieved in   7 iterations


     Computing stress (Cartesian axis) and pressure

          total   stress  (Ry/bohr**3)                   (kbar)     P=  -57.35
  -0.00038988  -0.00000000  -0.00000000        -57.35     -0.00     -0.00
  -0.00000000  -0.00038988   0.00000000         -0.00    -57.35      0.00
   0.00000000   0.00000000  -0.00038988          0.00      0.00    -57.35


     Writing output data file sn.alpha.16.save

     init_run     :      0.29s CPU      0.30s WALL (       1 calls)
     electrons    :      3.29s CPU      3.39s WALL (       1 calls)
     stress       :      0.19s CPU      0.19s WALL (       1 calls)

     Called by init_run:
     wfcinit      :      0.14s CPU      0.14s WALL (       1 calls)
     potinit      :      0.01s CPU      0.01s WALL (       1 calls)

     Called by electrons:
     c_bands      :      2.71s CPU      2.77s WALL (       7 calls)
     sum_band     :      0.46s CPU      0.47s WALL (       7 calls)
     v_of_rho     :      0.04s CPU      0.04s WALL (       8 calls)
     newd         :      0.09s CPU      0.10s WALL (       8 calls)
     mix_rho      :      0.00s CPU      0.00s WALL (       7 calls)

     Called by c_bands:
     init_us_2    :      0.07s CPU      0.07s WALL (     960 calls)
     cegterg      :      2.58s CPU      2.64s WALL (     420 calls)

     Called by sum_band:
     sum_band:bec :      0.00s CPU      0.00s WALL (     420 calls)
     addusdens    :      0.10s CPU      0.11s WALL (       7 calls)

     Called by *egterg:
     h_psi        :      1.89s CPU      1.94s WALL (    1539 calls)
     s_psi        :      0.05s CPU      0.04s WALL (    1539 calls)
     g_psi        :      0.01s CPU      0.01s WALL (    1059 calls)
     cdiaghg      :      0.56s CPU      0.57s WALL (    1479 calls)

     Called by h_psi:
     h_psi:pot    :      1.89s CPU      1.93s WALL (    1539 calls)
     h_psi:calbec :      0.07s CPU      0.06s WALL (    1539 calls)
     vloc_psi     :      1.77s CPU      1.82s WALL (    1539 calls)
     add_vuspsi   :      0.05s CPU      0.05s WALL (    1539 calls)

     General routines
     calbec       :      0.08s CPU      0.07s WALL (    2019 calls)
     fft          :      0.01s CPU      0.01s WALL (     138 calls)
     ffts         :      0.00s CPU      0.00s WALL (      15 calls)
     fftw         :      1.93s CPU      1.85s WALL (   44952 calls)
     interpolate  :      0.01s CPU      0.01s WALL (      15 calls)
     davcio       :      0.00s CPU      0.00s WALL (      60 calls)

     Parallel routines
     fft_scatter  :      0.31s CPU      0.36s WALL (   45105 calls)

     PWSCF        :     3.94s CPU         4.83s WALL


   This run was terminated on:  12:58:51  12Nov2017            

=------------------------------------------------------------------------------=
   JOB DONE.
=------------------------------------------------------------------------------=
