
     Program PWSCF v.6.1 (svn rev. 13369) starts on 23Nov2017 at  1:33:50 

     This program is part of the open-source Quantum ESPRESSO suite
     for quantum simulation of materials; please cite
         "P. Giannozzi et al., J. Phys.:Condens. Matter 21 395502 (2009);
          URL http://www.quantum-espresso.org", 
     in publications or presentations arising from this work. More details at
     http://www.quantum-espresso.org/quote

     Parallel version (MPI), running on     4 processors
     R & G space division:  proc/nbgrp/npool/nimage =       4
     Waiting for input...
     Reading input from standard input
     Message from routine read_cards :
     DEPRECATED: no units specified in ATOMIC_POSITIONS card
     Message from routine read_cards :
     ATOMIC_POSITIONS: units set to alat

     Current dimensions of program PWSCF are:
     Max number of different atomic species (ntypx) = 10
     Max number of k-points (npk) =  40000
     Max angular momentum in pseudopotentials (lmaxx) =  3

     Subspace diagonalization in iterative solution of the eigenvalue problem:
     a serial algorithm will be used


     Parallelization info
     --------------------
     sticks:   dense  smooth     PW     G-vecs:    dense   smooth      PW
     Min         518     259     78                15621     5552     929
     Max         520     260     79                15622     5556     931
     Sum        2077    1039    313                62487    22219    3719



     bravais-lattice index     =            2
     lattice parameter (alat)  =      12.2800  a.u.
     unit-cell volume          =     462.9511 (a.u.)^3
     number of atoms/cell      =            2
     number of atomic types    =            1
     number of electrons       =        28.00
     number of Kohn-Sham states=           14
     kinetic-energy cutoff     =      50.0000  Ry
     charge density cutoff     =     400.0000  Ry
     convergence threshold     =      1.0E-08
     mixing beta               =       0.7000
     number of iterations used =            8  plain     mixing
     Exchange-correlation      =  SLA  PW   PBX  PBC ( 1  4  3  4 0 0)

     celldm(1)=  12.280000  celldm(2)=   0.000000  celldm(3)=   0.000000
     celldm(4)=   0.000000  celldm(5)=   0.000000  celldm(6)=   0.000000

     crystal axes: (cart. coord. in units of alat)
               a(1) = (  -0.500000   0.000000   0.500000 )  
               a(2) = (   0.000000   0.500000   0.500000 )  
               a(3) = (  -0.500000   0.500000   0.000000 )  

     reciprocal axes: (cart. coord. in units 2 pi/alat)
               b(1) = ( -1.000000 -1.000000  1.000000 )  
               b(2) = (  1.000000  1.000000  1.000000 )  
               b(3) = ( -1.000000  1.000000 -1.000000 )  


     PseudoPot. # 1 for Sn read from file:
     /home/s1333534/quantum_espresso/qe-6.1/pseudo/sn_pbe_v1.4.uspp.F.UPF
     MD5 check sum: 469debedee59599fedebd795477fea03
     Pseudo is Ultrasoft + core correction, Zval = 14.0
     Generated by new atomic code, or converted to UPF format
     Using radial grid of  891 points,  6 beta functions with: 
                l(1) =   0
                l(2) =   0
                l(3) =   1
                l(4) =   1
                l(5) =   2
                l(6) =   2
     Q(r) pseudized with  8 coefficients,  rinner =    1.350   1.350   1.350
                                                       1.350   1.350

     atomic species   valence    mass     pseudopotential
        Sn            14.00   118.71000     Sn( 1.00)

     48 Sym. Ops., with inversion, found (24 have fractional translation)



   Cartesian axes

     site n.     atom                  positions (alat units)
         1           Sn  tau(   1) = (   0.0000000   0.0000000   0.0000000  )
         2           Sn  tau(   2) = (   0.2500000   0.2500000   0.2500000  )

     number of k points=   110

     Number of k-points >= 100: set verbosity='high' to print them.

     Dense  grid:    62487 G-vectors     FFT dimensions: (  60,  60,  60)

     Smooth grid:    22219 G-vectors     FFT dimensions: (  40,  40,  40)

     Estimated max dynamical RAM per process >      27.94MB

     Estimated total allocated dynamical RAM >     111.75MB

     Initial potential from superposition of free atoms

     starting charge   25.99991, renormalised to   28.00000
     Starting wfc are   18 randomized atomic wfcs

     total cpu time spent up to now is        2.0 secs

     per-process dynamical memory:    32.4 Mb

     Self-consistent Calculation

     iteration #  1     ecut=    50.00 Ry     beta=0.70
     Davidson diagonalization with overlap
     ethr =  1.00E-02,  avg # of iterations =  2.8

     total cpu time spent up to now is        6.3 secs

     total energy              =    -317.49058535 Ry
     Harris-Foulkes estimate   =    -319.53270272 Ry
     estimated scf accuracy    <       2.48880456 Ry

     iteration #  2     ecut=    50.00 Ry     beta=0.70
     Davidson diagonalization with overlap
     ethr =  8.89E-03,  avg # of iterations =  3.0

     total cpu time spent up to now is       10.9 secs

     total energy              =    -318.39134721 Ry
     Harris-Foulkes estimate   =    -318.70789709 Ry
     estimated scf accuracy    <       0.47250035 Ry

     iteration #  3     ecut=    50.00 Ry     beta=0.70
     Davidson diagonalization with overlap
     ethr =  1.69E-03,  avg # of iterations =  2.0

     total cpu time spent up to now is       15.0 secs

     total energy              =    -318.48579698 Ry
     Harris-Foulkes estimate   =    -318.48737384 Ry
     estimated scf accuracy    <       0.00288698 Ry

     iteration #  4     ecut=    50.00 Ry     beta=0.70
     Davidson diagonalization with overlap
     ethr =  1.03E-05,  avg # of iterations =  3.0

     total cpu time spent up to now is       19.5 secs

     total energy              =    -318.48669666 Ry
     Harris-Foulkes estimate   =    -318.48681577 Ry
     estimated scf accuracy    <       0.00017716 Ry

     iteration #  5     ecut=    50.00 Ry     beta=0.70
     Davidson diagonalization with overlap
     ethr =  6.33E-07,  avg # of iterations =  3.0

     total cpu time spent up to now is       23.9 secs

     total energy              =    -318.48675042 Ry
     Harris-Foulkes estimate   =    -318.48675106 Ry
     estimated scf accuracy    <       0.00000139 Ry

     iteration #  6     ecut=    50.00 Ry     beta=0.70
     Davidson diagonalization with overlap
     ethr =  4.95E-09,  avg # of iterations =  3.9

     total cpu time spent up to now is       29.0 secs

     total energy              =    -318.48675119 Ry
     Harris-Foulkes estimate   =    -318.48675125 Ry
     estimated scf accuracy    <       0.00000009 Ry

     iteration #  7     ecut=    50.00 Ry     beta=0.70
     Davidson diagonalization with overlap
     ethr =  3.07E-10,  avg # of iterations =  3.1

     total cpu time spent up to now is       33.7 secs

     End of self-consistent calculation

     Number of k-points >= 100: set verbosity='high' to print the bands.

     highest occupied level (ev):     7.8282

!    total energy              =    -318.48675122 Ry
     Harris-Foulkes estimate   =    -318.48675122 Ry
     estimated scf accuracy    <          2.1E-09 Ry

     The total energy is the sum of the following terms:

     one-electron contribution =    -155.63128038 Ry
     hartree contribution      =      95.13115261 Ry
     xc contribution           =     -86.03020380 Ry
     ewald contribution        =    -171.95641965 Ry

     convergence has been achieved in   7 iterations


     Computing stress (Cartesian axis) and pressure

          total   stress  (Ry/bohr**3)                   (kbar)     P=   10.85
   0.00007374   0.00000000   0.00000000         10.85      0.00      0.00
   0.00000000   0.00007374  -0.00000000          0.00     10.85     -0.00
   0.00000000  -0.00000000   0.00007374          0.00     -0.00     10.85


     Writing output data file sn.a.12.28.10.save

     init_run     :      1.87s CPU      1.92s WALL (       1 calls)
     electrons    :     30.77s CPU     31.70s WALL (       1 calls)
     stress       :      1.24s CPU      1.27s WALL (       1 calls)

     Called by init_run:
     wfcinit      :      1.40s CPU      1.43s WALL (       1 calls)
     potinit      :      0.06s CPU      0.06s WALL (       1 calls)

     Called by electrons:
     c_bands      :     25.57s CPU     26.23s WALL (       7 calls)
     sum_band     :      4.41s CPU      4.61s WALL (       7 calls)
     v_of_rho     :      0.36s CPU      0.37s WALL (       8 calls)
     newd         :      0.48s CPU      0.54s WALL (       8 calls)
     mix_rho      :      0.03s CPU      0.03s WALL (       7 calls)

     Called by c_bands:
     init_us_2    :      0.67s CPU      0.68s WALL (    1760 calls)
     cegterg      :     24.35s CPU     25.00s WALL (     770 calls)

     Called by sum_band:
     sum_band:bec :      0.00s CPU      0.01s WALL (     770 calls)
     addusdens    :      0.51s CPU      0.60s WALL (       7 calls)

     Called by *egterg:
     h_psi        :     21.13s CPU     21.75s WALL (    3174 calls)
     s_psi        :      0.40s CPU      0.40s WALL (    3174 calls)
     g_psi        :      0.13s CPU      0.13s WALL (    2294 calls)
     cdiaghg      :      1.35s CPU      1.35s WALL (    3064 calls)

     Called by h_psi:
     h_psi:pot    :     20.93s CPU     21.55s WALL (    3174 calls)
     h_psi:calbec :      0.84s CPU      0.85s WALL (    3174 calls)
     vloc_psi     :     19.55s CPU     20.14s WALL (    3174 calls)
     add_vuspsi   :      0.54s CPU      0.55s WALL (    3174 calls)

     General routines
     calbec       :      1.08s CPU      1.10s WALL (    4054 calls)
     fft          :      0.17s CPU      0.19s WALL (     138 calls)
     ffts         :      0.01s CPU      0.01s WALL (      15 calls)
     fftw         :     18.00s CPU     18.61s WALL (   83734 calls)
     interpolate  :      0.03s CPU      0.04s WALL (      15 calls)
     davcio       :      0.01s CPU      0.01s WALL (     110 calls)

     Parallel routines
     fft_scatter  :      3.23s CPU      3.17s WALL (   83887 calls)

     PWSCF        :    34.05s CPU        35.15s WALL


   This run was terminated on:   1:34:25  23Nov2017            

=------------------------------------------------------------------------------=
   JOB DONE.
=------------------------------------------------------------------------------=
