
     Program PWSCF v.6.1 (svn rev. 13369) starts on 23Nov2017 at  1:35:21 

     This program is part of the open-source Quantum ESPRESSO suite
     for quantum simulation of materials; please cite
         "P. Giannozzi et al., J. Phys.:Condens. Matter 21 395502 (2009);
          URL http://www.quantum-espresso.org", 
     in publications or presentations arising from this work. More details at
     http://www.quantum-espresso.org/quote

     Parallel version (MPI), running on     4 processors
     R & G space division:  proc/nbgrp/npool/nimage =       4
     Waiting for input...
     Reading input from standard input
     Message from routine read_cards :
     DEPRECATED: no units specified in ATOMIC_POSITIONS card
     Message from routine read_cards :
     ATOMIC_POSITIONS: units set to alat

     Current dimensions of program PWSCF are:
     Max number of different atomic species (ntypx) = 10
     Max number of k-points (npk) =  40000
     Max angular momentum in pseudopotentials (lmaxx) =  3

     Subspace diagonalization in iterative solution of the eigenvalue problem:
     a serial algorithm will be used


     Parallelization info
     --------------------
     sticks:   dense  smooth     PW     G-vecs:    dense   smooth      PW
     Min         518     259     78                15621     5552     941
     Max         520     260     79                15622     5556     943
     Sum        2077    1039    313                62487    22219    3767



     bravais-lattice index     =            2
     lattice parameter (alat)  =      12.2800  a.u.
     unit-cell volume          =     462.9511 (a.u.)^3
     number of atoms/cell      =            2
     number of atomic types    =            1
     number of electrons       =        28.00
     number of Kohn-Sham states=           14
     kinetic-energy cutoff     =      50.0000  Ry
     charge density cutoff     =     400.0000  Ry
     convergence threshold     =      1.0E-08
     mixing beta               =       0.7000
     number of iterations used =            8  plain     mixing
     Exchange-correlation      =  SLA  PW   PBX  PBC ( 1  4  3  4 0 0)

     celldm(1)=  12.280000  celldm(2)=   0.000000  celldm(3)=   0.000000
     celldm(4)=   0.000000  celldm(5)=   0.000000  celldm(6)=   0.000000

     crystal axes: (cart. coord. in units of alat)
               a(1) = (  -0.500000   0.000000   0.500000 )  
               a(2) = (   0.000000   0.500000   0.500000 )  
               a(3) = (  -0.500000   0.500000   0.000000 )  

     reciprocal axes: (cart. coord. in units 2 pi/alat)
               b(1) = ( -1.000000 -1.000000  1.000000 )  
               b(2) = (  1.000000  1.000000  1.000000 )  
               b(3) = ( -1.000000  1.000000 -1.000000 )  


     PseudoPot. # 1 for Sn read from file:
     /home/s1333534/quantum_espresso/qe-6.1/pseudo/sn_pbe_v1.4.uspp.F.UPF
     MD5 check sum: 469debedee59599fedebd795477fea03
     Pseudo is Ultrasoft + core correction, Zval = 14.0
     Generated by new atomic code, or converted to UPF format
     Using radial grid of  891 points,  6 beta functions with: 
                l(1) =   0
                l(2) =   0
                l(3) =   1
                l(4) =   1
                l(5) =   2
                l(6) =   2
     Q(r) pseudized with  8 coefficients,  rinner =    1.350   1.350   1.350
                                                       1.350   1.350

     atomic species   valence    mass     pseudopotential
        Sn            14.00   118.71000     Sn( 1.00)

     48 Sym. Ops., with inversion, found (24 have fractional translation)



   Cartesian axes

     site n.     atom                  positions (alat units)
         1           Sn  tau(   1) = (   0.0000000   0.0000000   0.0000000  )
         2           Sn  tau(   2) = (   0.2500000   0.2500000   0.2500000  )

     number of k points=   280

     Number of k-points >= 100: set verbosity='high' to print them.

     Dense  grid:    62487 G-vectors     FFT dimensions: (  60,  60,  60)

     Smooth grid:    22219 G-vectors     FFT dimensions: (  40,  40,  40)

     Estimated max dynamical RAM per process >      53.03MB

     Estimated total allocated dynamical RAM >     212.13MB

     Initial potential from superposition of free atoms

     starting charge   25.99991, renormalised to   28.00000
     Starting wfc are   18 randomized atomic wfcs

     total cpu time spent up to now is        4.1 secs

     per-process dynamical memory:    59.0 Mb

     Self-consistent Calculation

     iteration #  1     ecut=    50.00 Ry     beta=0.70
     Davidson diagonalization with overlap
     ethr =  1.00E-02,  avg # of iterations =  2.8

     total cpu time spent up to now is       14.6 secs

     total energy              =    -317.49079670 Ry
     Harris-Foulkes estimate   =    -319.53269446 Ry
     estimated scf accuracy    <       2.48853410 Ry

     iteration #  2     ecut=    50.00 Ry     beta=0.70
     Davidson diagonalization with overlap
     ethr =  8.89E-03,  avg # of iterations =  3.0

     total cpu time spent up to now is       25.9 secs

     total energy              =    -318.39135699 Ry
     Harris-Foulkes estimate   =    -318.70786127 Ry
     estimated scf accuracy    <       0.47241488 Ry

     iteration #  3     ecut=    50.00 Ry     beta=0.70
     Davidson diagonalization with overlap
     ethr =  1.69E-03,  avg # of iterations =  2.0

     total cpu time spent up to now is       35.8 secs

     total energy              =    -318.48579832 Ry
     Harris-Foulkes estimate   =    -318.48737224 Ry
     estimated scf accuracy    <       0.00288268 Ry

     iteration #  4     ecut=    50.00 Ry     beta=0.70
     Davidson diagonalization with overlap
     ethr =  1.03E-05,  avg # of iterations =  3.0

     total cpu time spent up to now is       46.4 secs

     total energy              =    -318.48669542 Ry
     Harris-Foulkes estimate   =    -318.48681461 Ry
     estimated scf accuracy    <       0.00017725 Ry

     iteration #  5     ecut=    50.00 Ry     beta=0.70
     Davidson diagonalization with overlap
     ethr =  6.33E-07,  avg # of iterations =  3.0

     total cpu time spent up to now is       57.1 secs

     total energy              =    -318.48674920 Ry
     Harris-Foulkes estimate   =    -318.48674984 Ry
     estimated scf accuracy    <       0.00000139 Ry

     iteration #  6     ecut=    50.00 Ry     beta=0.70
     Davidson diagonalization with overlap
     ethr =  4.95E-09,  avg # of iterations =  3.9

     total cpu time spent up to now is       68.9 secs

     total energy              =    -318.48674995 Ry
     Harris-Foulkes estimate   =    -318.48675001 Ry
     estimated scf accuracy    <       0.00000009 Ry

     iteration #  7     ecut=    50.00 Ry     beta=0.70
     Davidson diagonalization with overlap
     ethr =  3.11E-10,  avg # of iterations =  3.0

     total cpu time spent up to now is       79.7 secs

     End of self-consistent calculation

     Number of k-points >= 100: set verbosity='high' to print the bands.

     highest occupied level (ev):     7.8541

!    total energy              =    -318.48674998 Ry
     Harris-Foulkes estimate   =    -318.48674998 Ry
     estimated scf accuracy    <          2.0E-09 Ry

     The total energy is the sum of the following terms:

     one-electron contribution =    -155.63123413 Ry
     hartree contribution      =      95.13110425 Ry
     xc contribution           =     -86.03020046 Ry
     ewald contribution        =    -171.95641965 Ry

     convergence has been achieved in   7 iterations


     Computing stress (Cartesian axis) and pressure

          total   stress  (Ry/bohr**3)                   (kbar)     P=   10.87
   0.00007389   0.00000000   0.00000000         10.87      0.00      0.00
   0.00000000   0.00007389  -0.00000000          0.00     10.87     -0.00
   0.00000000  -0.00000000   0.00007389          0.00     -0.00     10.87


     Writing output data file sn.a.12.28.14.save

     init_run     :      3.93s CPU      4.04s WALL (       1 calls)
     electrons    :     73.73s CPU     75.64s WALL (       1 calls)
     stress       :      2.33s CPU      2.35s WALL (       1 calls)

     Called by init_run:
     wfcinit      :      3.41s CPU      3.51s WALL (       1 calls)
     potinit      :      0.06s CPU      0.06s WALL (       1 calls)

     Called by electrons:
     c_bands      :     62.91s CPU     64.45s WALL (       7 calls)
     sum_band     :     10.02s CPU     10.33s WALL (       7 calls)
     v_of_rho     :      0.34s CPU      0.36s WALL (       8 calls)
     newd         :      0.50s CPU      0.55s WALL (       8 calls)
     mix_rho      :      0.03s CPU      0.03s WALL (       7 calls)

     Called by c_bands:
     init_us_2    :      1.68s CPU      1.70s WALL (    4480 calls)
     cegterg      :     59.87s CPU     61.37s WALL (    1960 calls)

     Called by sum_band:
     sum_band:bec :      0.01s CPU      0.02s WALL (    1960 calls)
     addusdens    :      0.51s CPU      0.61s WALL (       7 calls)

     Called by *egterg:
     h_psi        :     51.83s CPU     53.30s WALL (    8063 calls)
     s_psi        :      0.91s CPU      0.92s WALL (    8063 calls)
     g_psi        :      0.33s CPU      0.34s WALL (    5823 calls)
     cdiaghg      :      3.45s CPU      3.46s WALL (    7783 calls)

     Called by h_psi:
     h_psi:pot    :     51.43s CPU     52.89s WALL (    8063 calls)
     h_psi:calbec :      2.13s CPU      2.17s WALL (    8063 calls)
     vloc_psi     :     48.13s CPU     49.51s WALL (    8063 calls)
     add_vuspsi   :      1.15s CPU      1.18s WALL (    8063 calls)

     General routines
     calbec       :      2.80s CPU      2.84s WALL (   10303 calls)
     fft          :      0.16s CPU      0.17s WALL (     138 calls)
     ffts         :      0.01s CPU      0.01s WALL (      15 calls)
     fftw         :     45.10s CPU     46.62s WALL (  213040 calls)
     interpolate  :      0.03s CPU      0.03s WALL (      15 calls)
     davcio       :      0.01s CPU      0.03s WALL (     280 calls)

     Parallel routines
     fft_scatter  :      7.48s CPU      7.19s WALL (  213193 calls)

     PWSCF        :  1m20.32s CPU     1m22.49s WALL


   This run was terminated on:   1:36:43  23Nov2017            

=------------------------------------------------------------------------------=
   JOB DONE.
=------------------------------------------------------------------------------=
