
     Program PWSCF v.6.1 (svn rev. 13369) starts on 23Nov2017 at  1:33:18 

     This program is part of the open-source Quantum ESPRESSO suite
     for quantum simulation of materials; please cite
         "P. Giannozzi et al., J. Phys.:Condens. Matter 21 395502 (2009);
          URL http://www.quantum-espresso.org", 
     in publications or presentations arising from this work. More details at
     http://www.quantum-espresso.org/quote

     Parallel version (MPI), running on     4 processors
     R & G space division:  proc/nbgrp/npool/nimage =       4
     Waiting for input...
     Reading input from standard input
     Message from routine read_cards :
     DEPRECATED: no units specified in ATOMIC_POSITIONS card
     Message from routine read_cards :
     ATOMIC_POSITIONS: units set to alat

     Current dimensions of program PWSCF are:
     Max number of different atomic species (ntypx) = 10
     Max number of k-points (npk) =  40000
     Max angular momentum in pseudopotentials (lmaxx) =  3

     Subspace diagonalization in iterative solution of the eigenvalue problem:
     a serial algorithm will be used


     Parallelization info
     --------------------
     sticks:   dense  smooth     PW     G-vecs:    dense   smooth      PW
     Min         518     259     78                15621     5552     923
     Max         520     260     79                15622     5556     925
     Sum        2077    1039    313                62487    22219    3695



     bravais-lattice index     =            2
     lattice parameter (alat)  =      12.2800  a.u.
     unit-cell volume          =     462.9511 (a.u.)^3
     number of atoms/cell      =            2
     number of atomic types    =            1
     number of electrons       =        28.00
     number of Kohn-Sham states=           14
     kinetic-energy cutoff     =      50.0000  Ry
     charge density cutoff     =     400.0000  Ry
     convergence threshold     =      1.0E-08
     mixing beta               =       0.7000
     number of iterations used =            8  plain     mixing
     Exchange-correlation      =  SLA  PW   PBX  PBC ( 1  4  3  4 0 0)

     celldm(1)=  12.280000  celldm(2)=   0.000000  celldm(3)=   0.000000
     celldm(4)=   0.000000  celldm(5)=   0.000000  celldm(6)=   0.000000

     crystal axes: (cart. coord. in units of alat)
               a(1) = (  -0.500000   0.000000   0.500000 )  
               a(2) = (   0.000000   0.500000   0.500000 )  
               a(3) = (  -0.500000   0.500000   0.000000 )  

     reciprocal axes: (cart. coord. in units 2 pi/alat)
               b(1) = ( -1.000000 -1.000000  1.000000 )  
               b(2) = (  1.000000  1.000000  1.000000 )  
               b(3) = ( -1.000000  1.000000 -1.000000 )  


     PseudoPot. # 1 for Sn read from file:
     /home/s1333534/quantum_espresso/qe-6.1/pseudo/sn_pbe_v1.4.uspp.F.UPF
     MD5 check sum: 469debedee59599fedebd795477fea03
     Pseudo is Ultrasoft + core correction, Zval = 14.0
     Generated by new atomic code, or converted to UPF format
     Using radial grid of  891 points,  6 beta functions with: 
                l(1) =   0
                l(2) =   0
                l(3) =   1
                l(4) =   1
                l(5) =   2
                l(6) =   2
     Q(r) pseudized with  8 coefficients,  rinner =    1.350   1.350   1.350
                                                       1.350   1.350

     atomic species   valence    mass     pseudopotential
        Sn            14.00   118.71000     Sn( 1.00)

     48 Sym. Ops., with inversion, found (24 have fractional translation)



   Cartesian axes

     site n.     atom                  positions (alat units)
         1           Sn  tau(   1) = (   0.0000000   0.0000000   0.0000000  )
         2           Sn  tau(   2) = (   0.2500000   0.2500000   0.2500000  )

     number of k points=    28
                       cart. coord. in units 2pi/alat
        k(    1) = (  -0.0833333   0.0833333   0.0833333), wk =   0.0185185
        k(    2) = (  -0.2500000   0.2500000  -0.0833333), wk =   0.0555556
        k(    3) = (  -0.4166667   0.4166667  -0.2500000), wk =   0.0555556
        k(    4) = (   0.4166667  -0.4166667   0.5833333), wk =   0.0555556
        k(    5) = (   0.2500000  -0.2500000   0.4166667), wk =   0.0555556
        k(    6) = (   0.0833333  -0.0833333   0.2500000), wk =   0.0555556
        k(    7) = (  -0.0833333   0.4166667   0.0833333), wk =   0.0555556
        k(    8) = (  -0.2500000   0.5833333  -0.0833333), wk =   0.1111111
        k(    9) = (   0.5833333  -0.2500000   0.7500000), wk =   0.1111111
        k(   10) = (   0.4166667  -0.0833333   0.5833333), wk =   0.1111111
        k(   11) = (   0.2500000   0.0833333   0.4166667), wk =   0.1111111
        k(   12) = (  -0.0833333   0.7500000   0.0833333), wk =   0.0555556
        k(   13) = (   0.7500000  -0.0833333   0.9166667), wk =   0.1111111
        k(   14) = (   0.5833333   0.0833333   0.7500000), wk =   0.1111111
        k(   15) = (   0.4166667   0.2500000   0.5833333), wk =   0.1111111
        k(   16) = (  -0.0833333  -0.9166667   0.0833333), wk =   0.0555556
        k(   17) = (  -0.2500000  -0.7500000  -0.0833333), wk =   0.1111111
        k(   18) = (  -0.0833333  -0.5833333   0.0833333), wk =   0.0555556
        k(   19) = (  -0.2500000   0.2500000   0.2500000), wk =   0.0185185
        k(   20) = (  -0.4166667   0.4166667   0.0833333), wk =   0.0555556
        k(   21) = (   0.4166667  -0.4166667   0.9166667), wk =   0.0555556
        k(   22) = (   0.2500000  -0.2500000   0.7500000), wk =   0.0555556
        k(   23) = (  -0.2500000   0.5833333   0.2500000), wk =   0.0555556
        k(   24) = (   0.5833333  -0.2500000   1.0833333), wk =   0.1111111
        k(   25) = (   0.4166667  -0.0833333   0.9166667), wk =   0.1111111
        k(   26) = (  -0.2500000  -1.0833333   0.2500000), wk =   0.0555556
        k(   27) = (  -0.4166667   0.4166667   0.4166667), wk =   0.0185185
        k(   28) = (   0.4166667  -0.4166667   1.2500000), wk =   0.0555556

     Dense  grid:    62487 G-vectors     FFT dimensions: (  60,  60,  60)

     Smooth grid:    22219 G-vectors     FFT dimensions: (  40,  40,  40)

     Estimated max dynamical RAM per process >      15.83MB

     Estimated total allocated dynamical RAM >      63.33MB

     Initial potential from superposition of free atoms

     starting charge   25.99991, renormalised to   28.00000
     Starting wfc are   18 randomized atomic wfcs

     total cpu time spent up to now is        0.9 secs

     per-process dynamical memory:    19.7 Mb

     Self-consistent Calculation

     iteration #  1     ecut=    50.00 Ry     beta=0.70
     Davidson diagonalization with overlap
     ethr =  1.00E-02,  avg # of iterations =  2.7

     total cpu time spent up to now is        2.2 secs

     total energy              =    -317.49083628 Ry
     Harris-Foulkes estimate   =    -319.53259225 Ry
     estimated scf accuracy    <       2.48837808 Ry

     iteration #  2     ecut=    50.00 Ry     beta=0.70
     Davidson diagonalization with overlap
     ethr =  8.89E-03,  avg # of iterations =  3.0

     total cpu time spent up to now is        3.7 secs

     total energy              =    -318.39129311 Ry
     Harris-Foulkes estimate   =    -318.70766241 Ry
     estimated scf accuracy    <       0.47224022 Ry

     iteration #  3     ecut=    50.00 Ry     beta=0.70
     Davidson diagonalization with overlap
     ethr =  1.69E-03,  avg # of iterations =  2.0

     total cpu time spent up to now is        4.9 secs

     total energy              =    -318.48569560 Ry
     Harris-Foulkes estimate   =    -318.48727195 Ry
     estimated scf accuracy    <       0.00288954 Ry

     iteration #  4     ecut=    50.00 Ry     beta=0.70
     Davidson diagonalization with overlap
     ethr =  1.03E-05,  avg # of iterations =  3.1

     total cpu time spent up to now is        6.2 secs

     total energy              =    -318.48659846 Ry
     Harris-Foulkes estimate   =    -318.48671777 Ry
     estimated scf accuracy    <       0.00017738 Ry

     iteration #  5     ecut=    50.00 Ry     beta=0.70
     Davidson diagonalization with overlap
     ethr =  6.34E-07,  avg # of iterations =  2.9

     total cpu time spent up to now is        7.5 secs

     total energy              =    -318.48665186 Ry
     Harris-Foulkes estimate   =    -318.48665247 Ry
     estimated scf accuracy    <       0.00000135 Ry

     iteration #  6     ecut=    50.00 Ry     beta=0.70
     Davidson diagonalization with overlap
     ethr =  4.83E-09,  avg # of iterations =  3.9

     total cpu time spent up to now is        8.9 secs

     total energy              =    -318.48665261 Ry
     Harris-Foulkes estimate   =    -318.48665267 Ry
     estimated scf accuracy    <       0.00000009 Ry

     iteration #  7     ecut=    50.00 Ry     beta=0.70
     Davidson diagonalization with overlap
     ethr =  3.27E-10,  avg # of iterations =  3.1

     total cpu time spent up to now is       10.3 secs

     End of self-consistent calculation

          k =-0.0833 0.0833 0.0833 (  2737 PWs)   bands (ev):

   -13.8992 -13.8992 -13.8920 -13.8279 -13.8279 -13.5440 -13.5440 -13.5320
   -13.5096 -13.5096  -2.7147   6.2420   7.7424   7.7424

          k =-0.2500 0.2500-0.0833 (  2765 PWs)   bands (ev):

   -13.9194 -13.9124 -13.8835 -13.8087 -13.7959 -13.5809 -13.5672 -13.5312
   -13.5015 -13.4831  -2.3640   4.4475   6.6135   7.4911

          k =-0.4167 0.4167-0.2500 (  2771 PWs)   bands (ev):

   -13.9318 -13.9313 -13.8625 -13.7845 -13.7701 -13.6011 -13.5840 -13.5635
   -13.4758 -13.4717  -1.5841   2.3559   6.0889   6.8815

          k = 0.4167-0.4167 0.5833 (  2771 PWs)   bands (ev):

   -13.9387 -13.9315 -13.8566 -13.7715 -13.7698 -13.6008 -13.5942 -13.5710
   -13.4736 -13.4657  -1.1312   1.5483   6.0807   6.5530

          k = 0.2500-0.2500 0.4167 (  2763 PWs)   bands (ev):

   -13.9312 -13.9219 -13.8728 -13.7905 -13.7736 -13.6071 -13.5735 -13.5478
   -13.4865 -13.4727  -1.8716   2.9883   6.5117   6.6557

          k = 0.0833-0.0833 0.2500 (  2757 PWs)   bands (ev):

   -13.9102 -13.9050 -13.8926 -13.8195 -13.8040 -13.5812 -13.5440 -13.5257
   -13.5098 -13.4932  -2.5370   5.2191   7.1679   7.2021

          k =-0.0833 0.4167 0.0833 (  2761 PWs)   bands (ev):

   -13.9213 -13.9151 -13.8925 -13.8009 -13.7656 -13.6287 -13.5571 -13.5163
   -13.4986 -13.4845  -2.1843   4.0828   6.4420   6.5224

          k =-0.2500 0.5833-0.0833 (  2764 PWs)   bands (ev):

   -13.9419 -13.9340 -13.8605 -13.7720 -13.7291 -13.6658 -13.5875 -13.5493
   -13.4721 -13.4619  -1.5200   2.6100   5.4116   6.1591

          k = 0.5833-0.2500 0.7500 (  2765 PWs)   bands (ev):

   -13.9587 -13.9417 -13.8247 -13.7460 -13.7289 -13.6577 -13.6212 -13.5878
   -13.4602 -13.4432  -0.7654   1.3957   4.8693   5.9872

          k = 0.4167-0.0833 0.5833 (  2760 PWs)   bands (ev):

   -13.9510 -13.9406 -13.8331 -13.7695 -13.7335 -13.6471 -13.5954 -13.5876
   -13.4607 -13.4534  -1.2476   2.1195   4.9252   6.3661

          k = 0.2500 0.0833 0.4167 (  2767 PWs)   bands (ev):

   -13.9298 -13.9234 -13.8740 -13.7955 -13.7677 -13.6187 -13.5695 -13.5396
   -13.4881 -13.4733  -2.0220   3.5354   5.9623   6.8924

          k =-0.0833 0.7500 0.0833 (  2766 PWs)   bands (ev):

   -13.9432 -13.9382 -13.8602 -13.7377 -13.7333 -13.6715 -13.6181 -13.5439
   -13.4649 -13.4594  -0.9819   1.8369   5.3855   5.6070

          k = 0.7500-0.0833 0.9167 (  2769 PWs)   bands (ev):

   -13.9584 -13.9486 -13.8093 -13.7582 -13.7002 -13.6586 -13.6452 -13.5963
   -13.4514 -13.4418  -0.1184   0.7900   4.8088   5.3325

          k = 0.5833 0.0833 0.7500 (  2763 PWs)   bands (ev):

   -13.9658 -13.9468 -13.8073 -13.7229 -13.7025 -13.6858 -13.6493 -13.5996
   -13.4533 -13.4350  -0.4484   1.1480   4.4524   5.7676

          k = 0.4167 0.2500 0.5833 (  2767 PWs)   bands (ev):

   -13.9464 -13.9348 -13.8454 -13.7706 -13.7528 -13.6250 -13.5943 -13.5770
   -13.4691 -13.4575  -1.1921   1.8097   5.4890   6.4280

          k =-0.0833-0.9167 0.0833 (  2770 PWs)   bands (ev):

   -13.9489 -13.9438 -13.8272 -13.7823 -13.6983 -13.6572 -13.6242 -13.5790
   -13.4561 -13.4513  -0.1582   0.7945   5.1665   5.4140

          k =-0.2500-0.7500-0.0833 (  2766 PWs)   bands (ev):

   -13.9525 -13.9432 -13.8386 -13.7388 -13.7151 -13.6854 -13.6202 -13.5678
   -13.4592 -13.4494  -0.8743   1.6859   5.0169   5.6131

          k =-0.0833-0.5833 0.0833 (  2771 PWs)   bands (ev):

   -13.9333 -13.9280 -13.8826 -13.7729 -13.7202 -13.6808 -13.5837 -13.5210
   -13.4807 -13.4731  -1.6626   2.9441   5.8171   5.9840

          k =-0.2500 0.2500 0.2500 (  2764 PWs)   bands (ev):

   -13.9190 -13.9190 -13.8810 -13.7968 -13.7968 -13.5745 -13.5745 -13.5466
   -13.4866 -13.4866  -2.1976   3.7675   7.1354   7.1354

          k =-0.4167 0.4167 0.0833 (  2768 PWs)   bands (ev):

   -13.9377 -13.9347 -13.8519 -13.7877 -13.7582 -13.6154 -13.5874 -13.5663
   -13.4712 -13.4661  -1.7044   2.8301   5.3826   6.9543

          k = 0.4167-0.4167 0.9167 (  2757 PWs)   bands (ev):

   -13.9609 -13.9422 -13.8187 -13.7503 -13.7253 -13.6414 -13.6376 -13.5935
   -13.4579 -13.4417  -0.8736   1.6117   4.5743   6.2895

          k = 0.2500-0.2500 0.7500 (  2763 PWs)   bands (ev):

   -13.9583 -13.9386 -13.8359 -13.7401 -13.7122 -13.6847 -13.6202 -13.5726
   -13.4637 -13.4431  -0.8223   1.5410   4.8901   5.8949

          k =-0.2500 0.5833 0.2500 (  2765 PWs)   bands (ev):

   -13.9458 -13.9301 -13.8575 -13.7711 -13.7431 -13.6472 -13.5898 -13.5553
   -13.4765 -13.4573  -1.4018   2.2452   5.6084   6.2164

          k = 0.5833-0.2500 1.0833 (  2754 PWs)   bands (ev):

   -13.9601 -13.9486 -13.8119 -13.7398 -13.7019 -13.6878 -13.6277 -13.5967
   -13.4521 -13.4411  -0.6812   1.4296   4.6585   5.6493

          k = 0.4167-0.0833 0.9167 (  2759 PWs)   bands (ev):

   -13.9641 -13.9553 -13.7855 -13.7302 -13.7051 -13.6694 -13.6595 -13.6172
   -13.4445 -13.4359  -0.0754   0.7822   4.5917   5.1578

          k =-0.2500-1.0833 0.2500 (  2771 PWs)   bands (ev):

   -13.9655 -13.9442 -13.8147 -13.7229 -13.7046 -13.6781 -13.6558 -13.5922
   -13.4557 -13.4349  -0.2402   0.9179   4.4957   5.7269

          k =-0.4167 0.4167 0.4167 (  2767 PWs)   bands (ev):

   -13.9284 -13.9284 -13.8694 -13.7784 -13.7784 -13.5889 -13.5889 -13.5608
   -13.4764 -13.4764  -1.3716   1.8581   6.7373   6.7373

          k = 0.4167-0.4167 1.2500 (  2767 PWs)   bands (ev):

   -13.9525 -13.9375 -13.8348 -13.7595 -13.7497 -13.6195 -13.6166 -13.5856
   -13.4647 -13.4512  -0.9514   1.5001   5.1783   6.3865

     highest occupied level (ev):     7.7424

!    total energy              =    -318.48665264 Ry
     Harris-Foulkes estimate   =    -318.48665264 Ry
     estimated scf accuracy    <          1.8E-09 Ry

     The total energy is the sum of the following terms:

     one-electron contribution =    -155.63201264 Ry
     hartree contribution      =      95.13208163 Ry
     xc contribution           =     -86.03030199 Ry
     ewald contribution        =    -171.95641965 Ry

     convergence has been achieved in   7 iterations


     Computing stress (Cartesian axis) and pressure

          total   stress  (Ry/bohr**3)                   (kbar)     P=   10.79
   0.00007336  -0.00000000   0.00000000         10.79     -0.00      0.00
  -0.00000000   0.00007336  -0.00000000         -0.00     10.79     -0.00
   0.00000000  -0.00000000   0.00007336          0.00     -0.00     10.79


     Writing output data file sn.a.12.28.6.save

     init_run     :      0.81s CPU      0.84s WALL (       1 calls)
     electrons    :      8.96s CPU      9.35s WALL (       1 calls)
     stress       :      0.73s CPU      0.75s WALL (       1 calls)

     Called by init_run:
     wfcinit      :      0.35s CPU      0.36s WALL (       1 calls)
     potinit      :      0.06s CPU      0.06s WALL (       1 calls)

     Called by electrons:
     c_bands      :      6.56s CPU      6.76s WALL (       7 calls)
     sum_band     :      1.60s CPU      1.71s WALL (       7 calls)
     v_of_rho     :      0.36s CPU      0.37s WALL (       8 calls)
     newd         :      0.49s CPU      0.56s WALL (       8 calls)
     mix_rho      :      0.03s CPU      0.03s WALL (       7 calls)

     Called by c_bands:
     init_us_2    :      0.18s CPU      0.19s WALL (     448 calls)
     cegterg      :      6.25s CPU      6.44s WALL (     196 calls)

     Called by sum_band:
     sum_band:bec :      0.00s CPU      0.00s WALL (     196 calls)
     addusdens    :      0.53s CPU      0.61s WALL (       7 calls)

     Called by *egterg:
     h_psi        :      5.43s CPU      5.61s WALL (     805 calls)
     s_psi        :      0.09s CPU      0.09s WALL (     805 calls)
     g_psi        :      0.03s CPU      0.03s WALL (     581 calls)
     cdiaghg      :      0.35s CPU      0.35s WALL (     777 calls)

     Called by h_psi:
     h_psi:pot    :      5.39s CPU      5.57s WALL (     805 calls)
     h_psi:calbec :      0.22s CPU      0.22s WALL (     805 calls)
     vloc_psi     :      5.06s CPU      5.23s WALL (     805 calls)
     add_vuspsi   :      0.11s CPU      0.12s WALL (     805 calls)

     General routines
     calbec       :      0.28s CPU      0.28s WALL (    1029 calls)
     fft          :      0.20s CPU      0.21s WALL (     138 calls)
     ffts         :      0.01s CPU      0.01s WALL (      15 calls)
     fftw         :      4.72s CPU      4.86s WALL (   21312 calls)
     interpolate  :      0.04s CPU      0.04s WALL (      15 calls)
     davcio       :      0.00s CPU      0.00s WALL (      28 calls)

     Parallel routines
     fft_scatter  :      0.97s CPU      1.01s WALL (   21465 calls)

     PWSCF        :    10.62s CPU        11.08s WALL


   This run was terminated on:   1:33:29  23Nov2017            

=------------------------------------------------------------------------------=
   JOB DONE.
=------------------------------------------------------------------------------=
