
     Program PWSCF v.6.1 (svn rev. 13369) starts on 23Nov2017 at  1:36:44 

     This program is part of the open-source Quantum ESPRESSO suite
     for quantum simulation of materials; please cite
         "P. Giannozzi et al., J. Phys.:Condens. Matter 21 395502 (2009);
          URL http://www.quantum-espresso.org", 
     in publications or presentations arising from this work. More details at
     http://www.quantum-espresso.org/quote

     Parallel version (MPI), running on     4 processors
     R & G space division:  proc/nbgrp/npool/nimage =       4
     Waiting for input...
     Reading input from standard input
     Message from routine read_cards :
     DEPRECATED: no units specified in ATOMIC_POSITIONS card
     Message from routine read_cards :
     ATOMIC_POSITIONS: units set to alat

     Current dimensions of program PWSCF are:
     Max number of different atomic species (ntypx) = 10
     Max number of k-points (npk) =  40000
     Max angular momentum in pseudopotentials (lmaxx) =  3

     Subspace diagonalization in iterative solution of the eigenvalue problem:
     a serial algorithm will be used


     Parallelization info
     --------------------
     sticks:   dense  smooth     PW     G-vecs:    dense   smooth      PW
     Min         518     259     78                15621     5552     958
     Max         520     260     79                15622     5556     963
     Sum        2077    1039    313                62487    22219    3839



     bravais-lattice index     =            2
     lattice parameter (alat)  =      12.2800  a.u.
     unit-cell volume          =     462.9511 (a.u.)^3
     number of atoms/cell      =            2
     number of atomic types    =            1
     number of electrons       =        28.00
     number of Kohn-Sham states=           14
     kinetic-energy cutoff     =      50.0000  Ry
     charge density cutoff     =     400.0000  Ry
     convergence threshold     =      1.0E-08
     mixing beta               =       0.7000
     number of iterations used =            8  plain     mixing
     Exchange-correlation      =  SLA  PW   PBX  PBC ( 1  4  3  4 0 0)

     celldm(1)=  12.280000  celldm(2)=   0.000000  celldm(3)=   0.000000
     celldm(4)=   0.000000  celldm(5)=   0.000000  celldm(6)=   0.000000

     crystal axes: (cart. coord. in units of alat)
               a(1) = (  -0.500000   0.000000   0.500000 )  
               a(2) = (   0.000000   0.500000   0.500000 )  
               a(3) = (  -0.500000   0.500000   0.000000 )  

     reciprocal axes: (cart. coord. in units 2 pi/alat)
               b(1) = ( -1.000000 -1.000000  1.000000 )  
               b(2) = (  1.000000  1.000000  1.000000 )  
               b(3) = ( -1.000000  1.000000 -1.000000 )  


     PseudoPot. # 1 for Sn read from file:
     /home/s1333534/quantum_espresso/qe-6.1/pseudo/sn_pbe_v1.4.uspp.F.UPF
     MD5 check sum: 469debedee59599fedebd795477fea03
     Pseudo is Ultrasoft + core correction, Zval = 14.0
     Generated by new atomic code, or converted to UPF format
     Using radial grid of  891 points,  6 beta functions with: 
                l(1) =   0
                l(2) =   0
                l(3) =   1
                l(4) =   1
                l(5) =   2
                l(6) =   2
     Q(r) pseudized with  8 coefficients,  rinner =    1.350   1.350   1.350
                                                       1.350   1.350

     atomic species   valence    mass     pseudopotential
        Sn            14.00   118.71000     Sn( 1.00)

     48 Sym. Ops., with inversion, found (24 have fractional translation)



   Cartesian axes

     site n.     atom                  positions (alat units)
         1           Sn  tau(   1) = (   0.0000000   0.0000000   0.0000000  )
         2           Sn  tau(   2) = (   0.2500000   0.2500000   0.2500000  )

     number of k points=   408

     Number of k-points >= 100: set verbosity='high' to print them.

     Dense  grid:    62487 G-vectors     FFT dimensions: (  60,  60,  60)

     Smooth grid:    22219 G-vectors     FFT dimensions: (  40,  40,  40)

     Estimated max dynamical RAM per process >      71.93MB

     Estimated total allocated dynamical RAM >     287.70MB

     Initial potential from superposition of free atoms

     starting charge   25.99991, renormalised to   28.00000
     Starting wfc are   18 randomized atomic wfcs

     total cpu time spent up to now is        5.7 secs

     per-process dynamical memory:    80.0 Mb

     Self-consistent Calculation

     iteration #  1     ecut=    50.00 Ry     beta=0.70
     Davidson diagonalization with overlap
     ethr =  1.00E-02,  avg # of iterations =  2.8

     total cpu time spent up to now is       21.0 secs

     total energy              =    -317.49083333 Ry
     Harris-Foulkes estimate   =    -319.53268242 Ry
     estimated scf accuracy    <       2.48847208 Ry

     iteration #  2     ecut=    50.00 Ry     beta=0.70
     Davidson diagonalization with overlap
     ethr =  8.89E-03,  avg # of iterations =  3.0

     total cpu time spent up to now is       37.6 secs

     total energy              =    -318.39136774 Ry
     Harris-Foulkes estimate   =    -318.70784473 Ry
     estimated scf accuracy    <       0.47237303 Ry

     iteration #  3     ecut=    50.00 Ry     beta=0.70
     Davidson diagonalization with overlap
     ethr =  1.69E-03,  avg # of iterations =  2.0

     total cpu time spent up to now is       52.0 secs

     total energy              =    -318.48580456 Ry
     Harris-Foulkes estimate   =    -318.48737814 Ry
     estimated scf accuracy    <       0.00288229 Ry

     iteration #  4     ecut=    50.00 Ry     beta=0.70
     Davidson diagonalization with overlap
     ethr =  1.03E-05,  avg # of iterations =  3.0

     total cpu time spent up to now is       67.6 secs

     total energy              =    -318.48669902 Ry
     Harris-Foulkes estimate   =    -318.48681796 Ry
     estimated scf accuracy    <       0.00017690 Ry

     iteration #  5     ecut=    50.00 Ry     beta=0.70
     Davidson diagonalization with overlap
     ethr =  6.32E-07,  avg # of iterations =  3.0

     total cpu time spent up to now is       83.3 secs

     total energy              =    -318.48675254 Ry
     Harris-Foulkes estimate   =    -318.48675315 Ry
     estimated scf accuracy    <       0.00000136 Ry

     iteration #  6     ecut=    50.00 Ry     beta=0.70
     Davidson diagonalization with overlap
     ethr =  4.85E-09,  avg # of iterations =  3.9

     total cpu time spent up to now is      100.6 secs

     total energy              =    -318.48675329 Ry
     Harris-Foulkes estimate   =    -318.48675335 Ry
     estimated scf accuracy    <       0.00000009 Ry

     iteration #  7     ecut=    50.00 Ry     beta=0.70
     Davidson diagonalization with overlap
     ethr =  3.21E-10,  avg # of iterations =  3.0

     total cpu time spent up to now is      116.5 secs

     End of self-consistent calculation

     Number of k-points >= 100: set verbosity='high' to print the bands.

     highest occupied level (ev):     7.8606

!    total energy              =    -318.48675332 Ry
     Harris-Foulkes estimate   =    -318.48675332 Ry
     estimated scf accuracy    <          2.0E-09 Ry

     The total energy is the sum of the following terms:

     one-electron contribution =    -155.63123708 Ry
     hartree contribution      =      95.13110399 Ry
     xc contribution           =     -86.03020058 Ry
     ewald contribution        =    -171.95641965 Ry

     convergence has been achieved in   7 iterations


     Computing stress (Cartesian axis) and pressure

          total   stress  (Ry/bohr**3)                   (kbar)     P=   10.88
   0.00007397  -0.00000000  -0.00000000         10.88     -0.00     -0.00
  -0.00000000   0.00007397   0.00000000         -0.00     10.88      0.00
  -0.00000000   0.00000000   0.00007397         -0.00      0.00     10.88


     Writing output data file sn.a.12.28.16.save

     init_run     :      5.47s CPU      5.64s WALL (       1 calls)
     electrons    :    107.86s CPU    110.79s WALL (       1 calls)
     stress       :      3.16s CPU      3.18s WALL (       1 calls)

     Called by init_run:
     wfcinit      :      4.98s CPU      5.13s WALL (       1 calls)
     potinit      :      0.06s CPU      0.06s WALL (       1 calls)

     Called by electrons:
     c_bands      :     92.45s CPU     94.82s WALL (       7 calls)
     sum_band     :     14.62s CPU     15.08s WALL (       7 calls)
     v_of_rho     :      0.35s CPU      0.37s WALL (       8 calls)
     newd         :      0.50s CPU      0.58s WALL (       8 calls)
     mix_rho      :      0.03s CPU      0.03s WALL (       7 calls)

     Called by c_bands:
     init_us_2    :      2.48s CPU      2.52s WALL (    6528 calls)
     cegterg      :     87.92s CPU     90.26s WALL (    2856 calls)

     Called by sum_band:
     sum_band:bec :      0.01s CPU      0.03s WALL (    2856 calls)
     addusdens    :      0.51s CPU      0.60s WALL (       7 calls)

     Called by *egterg:
     h_psi        :     76.37s CPU     78.66s WALL (   11723 calls)
     s_psi        :      1.33s CPU      1.35s WALL (   11723 calls)
     g_psi        :      0.49s CPU      0.49s WALL (    8459 calls)
     cdiaghg      :      4.95s CPU      4.96s WALL (   11315 calls)

     Called by h_psi:
     h_psi:pot    :     75.73s CPU     78.00s WALL (   11723 calls)
     h_psi:calbec :      3.12s CPU      3.17s WALL (   11723 calls)
     vloc_psi     :     70.89s CPU     73.04s WALL (   11723 calls)
     add_vuspsi   :      1.71s CPU      1.75s WALL (   11723 calls)

     General routines
     calbec       :      3.98s CPU      4.04s WALL (   14987 calls)
     fft          :      0.17s CPU      0.18s WALL (     138 calls)
     ffts         :      0.01s CPU      0.01s WALL (      15 calls)
     fftw         :     66.00s CPU     68.23s WALL (  310338 calls)
     interpolate  :      0.03s CPU      0.03s WALL (      15 calls)
     davcio       :      0.01s CPU      0.04s WALL (     408 calls)

     Parallel routines
     fft_scatter  :     11.34s CPU     11.02s WALL (  310491 calls)

     PWSCF        :  1m56.94s CPU     2m 0.22s WALL


   This run was terminated on:   1:38:44  23Nov2017            

=------------------------------------------------------------------------------=
   JOB DONE.
=------------------------------------------------------------------------------=
