
     Program PWSCF v.6.1 (svn rev. 13369) starts on 23Nov2017 at  1:41:41 

     This program is part of the open-source Quantum ESPRESSO suite
     for quantum simulation of materials; please cite
         "P. Giannozzi et al., J. Phys.:Condens. Matter 21 395502 (2009);
          URL http://www.quantum-espresso.org", 
     in publications or presentations arising from this work. More details at
     http://www.quantum-espresso.org/quote

     Parallel version (MPI), running on     4 processors
     R & G space division:  proc/nbgrp/npool/nimage =       4
     Waiting for input...
     Reading input from standard input
     Message from routine read_cards :
     DEPRECATED: no units specified in ATOMIC_POSITIONS card
     Message from routine read_cards :
     ATOMIC_POSITIONS: units set to alat

     Current dimensions of program PWSCF are:
     Max number of different atomic species (ntypx) = 10
     Max number of k-points (npk) =  40000
     Max angular momentum in pseudopotentials (lmaxx) =  3

     Subspace diagonalization in iterative solution of the eigenvalue problem:
     a serial algorithm will be used


     Parallelization info
     --------------------
     sticks:   dense  smooth     PW     G-vecs:    dense   smooth      PW
     Min         518     259     78                15621     5552     958
     Max         520     260     79                15622     5556     963
     Sum        2077    1039    313                62487    22219    3839



     bravais-lattice index     =            2
     lattice parameter (alat)  =      12.2800  a.u.
     unit-cell volume          =     462.9511 (a.u.)^3
     number of atoms/cell      =            2
     number of atomic types    =            1
     number of electrons       =        28.00
     number of Kohn-Sham states=           14
     kinetic-energy cutoff     =      50.0000  Ry
     charge density cutoff     =     400.0000  Ry
     convergence threshold     =      1.0E-08
     mixing beta               =       0.7000
     number of iterations used =            8  plain     mixing
     Exchange-correlation      =  SLA  PW   PBX  PBC ( 1  4  3  4 0 0)

     celldm(1)=  12.280000  celldm(2)=   0.000000  celldm(3)=   0.000000
     celldm(4)=   0.000000  celldm(5)=   0.000000  celldm(6)=   0.000000

     crystal axes: (cart. coord. in units of alat)
               a(1) = (  -0.500000   0.000000   0.500000 )  
               a(2) = (   0.000000   0.500000   0.500000 )  
               a(3) = (  -0.500000   0.500000   0.000000 )  

     reciprocal axes: (cart. coord. in units 2 pi/alat)
               b(1) = ( -1.000000 -1.000000  1.000000 )  
               b(2) = (  1.000000  1.000000  1.000000 )  
               b(3) = ( -1.000000  1.000000 -1.000000 )  


     PseudoPot. # 1 for Sn read from file:
     /home/s1333534/quantum_espresso/qe-6.1/pseudo/sn_pbe_v1.4.uspp.F.UPF
     MD5 check sum: 469debedee59599fedebd795477fea03
     Pseudo is Ultrasoft + core correction, Zval = 14.0
     Generated by new atomic code, or converted to UPF format
     Using radial grid of  891 points,  6 beta functions with: 
                l(1) =   0
                l(2) =   0
                l(3) =   1
                l(4) =   1
                l(5) =   2
                l(6) =   2
     Q(r) pseudized with  8 coefficients,  rinner =    1.350   1.350   1.350
                                                       1.350   1.350

     atomic species   valence    mass     pseudopotential
        Sn            14.00   118.71000     Sn( 1.00)

     48 Sym. Ops., with inversion, found (24 have fractional translation)



   Cartesian axes

     site n.     atom                  positions (alat units)
         1           Sn  tau(   1) = (   0.0000000   0.0000000   0.0000000  )
         2           Sn  tau(   2) = (   0.2500000   0.2500000   0.2500000  )

     number of k points=   770

     Number of k-points >= 100: set verbosity='high' to print them.

     Dense  grid:    62487 G-vectors     FFT dimensions: (  60,  60,  60)

     Smooth grid:    22219 G-vectors     FFT dimensions: (  40,  40,  40)

     Estimated max dynamical RAM per process >     125.36MB

     Estimated total allocated dynamical RAM >     501.45MB

     Initial potential from superposition of free atoms

     starting charge   25.99991, renormalised to   28.00000
     Starting wfc are   18 randomized atomic wfcs

     total cpu time spent up to now is       10.7 secs

     per-process dynamical memory:   137.1 Mb

     Self-consistent Calculation

     iteration #  1     ecut=    50.00 Ry     beta=0.70
     Davidson diagonalization with overlap
     ethr =  1.00E-02,  avg # of iterations =  2.8

     total cpu time spent up to now is       40.6 secs

     total energy              =    -317.49087807 Ry
     Harris-Foulkes estimate   =    -319.53267347 Ry
     estimated scf accuracy    <       2.48841119 Ry

     iteration #  2     ecut=    50.00 Ry     beta=0.70
     Davidson diagonalization with overlap
     ethr =  8.89E-03,  avg # of iterations =  3.0

     total cpu time spent up to now is       73.2 secs

     total energy              =    -318.39137899 Ry
     Harris-Foulkes estimate   =    -318.70780936 Ry
     estimated scf accuracy    <       0.47230315 Ry

     iteration #  3     ecut=    50.00 Ry     beta=0.70
     Davidson diagonalization with overlap
     ethr =  1.69E-03,  avg # of iterations =  2.0

     total cpu time spent up to now is      101.7 secs

     total energy              =    -318.48580090 Ry
     Harris-Foulkes estimate   =    -318.48737505 Ry
     estimated scf accuracy    <       0.00288263 Ry

     iteration #  4     ecut=    50.00 Ry     beta=0.70
     Davidson diagonalization with overlap
     ethr =  1.03E-05,  avg # of iterations =  3.0

     total cpu time spent up to now is      131.5 secs

     total energy              =    -318.48669898 Ry
     Harris-Foulkes estimate   =    -318.48681783 Ry
     estimated scf accuracy    <       0.00017675 Ry

     iteration #  5     ecut=    50.00 Ry     beta=0.70
     Davidson diagonalization with overlap
     ethr =  6.31E-07,  avg # of iterations =  3.0

     total cpu time spent up to now is      163.8 secs

     total energy              =    -318.48675249 Ry
     Harris-Foulkes estimate   =    -318.48675310 Ry
     estimated scf accuracy    <       0.00000135 Ry

     iteration #  6     ecut=    50.00 Ry     beta=0.70
     Davidson diagonalization with overlap
     ethr =  4.81E-09,  avg # of iterations =  3.9

     total cpu time spent up to now is      198.4 secs

     total energy              =    -318.48675325 Ry
     Harris-Foulkes estimate   =    -318.48675331 Ry
     estimated scf accuracy    <       0.00000009 Ry

     iteration #  7     ecut=    50.00 Ry     beta=0.70
     Davidson diagonalization with overlap
     ethr =  3.18E-10,  avg # of iterations =  3.0

     total cpu time spent up to now is      229.9 secs

     End of self-consistent calculation

     Number of k-points >= 100: set verbosity='high' to print the bands.

     highest occupied level (ev):     7.8683

!    total energy              =    -318.48675328 Ry
     Harris-Foulkes estimate   =    -318.48675328 Ry
     estimated scf accuracy    <          2.0E-09 Ry

     The total energy is the sum of the following terms:

     one-electron contribution =    -155.63123782 Ry
     hartree contribution      =      95.13110518 Ry
     xc contribution           =     -86.03020099 Ry
     ewald contribution        =    -171.95641965 Ry

     convergence has been achieved in   7 iterations


     Computing stress (Cartesian axis) and pressure

          total   stress  (Ry/bohr**3)                   (kbar)     P=   10.89
   0.00007401  -0.00000000  -0.00000000         10.89     -0.00     -0.00
  -0.00000000   0.00007401   0.00000000         -0.00     10.89      0.00
  -0.00000000   0.00000000   0.00007401         -0.00      0.00     10.89


     Writing output data file sn.a.12.28.20.save

     init_run     :     10.32s CPU     10.61s WALL (       1 calls)
     electrons    :    213.26s CPU    219.27s WALL (       1 calls)
     stress       :      5.44s CPU      5.51s WALL (       1 calls)

     Called by init_run:
     wfcinit      :      9.82s CPU     10.09s WALL (       1 calls)
     potinit      :      0.06s CPU      0.06s WALL (       1 calls)

     Called by electrons:
     c_bands      :    185.09s CPU    190.19s WALL (       7 calls)
     sum_band     :     27.32s CPU     28.15s WALL (       7 calls)
     v_of_rho     :      0.36s CPU      0.37s WALL (       8 calls)
     newd         :      0.53s CPU      0.61s WALL (       8 calls)
     mix_rho      :      0.03s CPU      0.03s WALL (       7 calls)

     Called by c_bands:
     init_us_2    :      5.02s CPU      5.10s WALL (   12320 calls)
     cegterg      :    176.29s CPU    181.28s WALL (    5390 calls)

     Called by sum_band:
     sum_band:bec :      0.03s CPU      0.06s WALL (    5390 calls)
     addusdens    :      0.46s CPU      0.61s WALL (       7 calls)

     Called by *egterg:
     h_psi        :    152.62s CPU    157.38s WALL (   22093 calls)
     s_psi        :      3.17s CPU      3.21s WALL (   22093 calls)
     g_psi        :      0.93s CPU      0.94s WALL (   15933 calls)
     cdiaghg      :      9.46s CPU      9.53s WALL (   21323 calls)

     Called by h_psi:
     h_psi:pot    :    150.74s CPU    155.46s WALL (   22093 calls)
     h_psi:calbec :      6.24s CPU      6.37s WALL (   22093 calls)
     vloc_psi     :    139.54s CPU    143.98s WALL (   22093 calls)
     add_vuspsi   :      4.93s CPU      5.04s WALL (   22093 calls)

     General routines
     calbec       :      8.05s CPU      8.20s WALL (   28253 calls)
     fft          :      0.18s CPU      0.19s WALL (     138 calls)
     ffts         :      0.01s CPU      0.01s WALL (      15 calls)
     fftw         :    125.92s CPU    130.99s WALL (  585902 calls)
     interpolate  :      0.04s CPU      0.04s WALL (      15 calls)
     davcio       :      0.02s CPU      0.08s WALL (     770 calls)

     Parallel routines
     fft_scatter  :     23.16s CPU     22.60s WALL (  586055 calls)

     PWSCF        :  3m49.79s CPU     3m56.46s WALL


   This run was terminated on:   1:45:38  23Nov2017            

=------------------------------------------------------------------------------=
   JOB DONE.
=------------------------------------------------------------------------------=
