
     Program PWSCF v.6.1 (svn rev. 13369) starts on 23Nov2017 at  1:33:29 

     This program is part of the open-source Quantum ESPRESSO suite
     for quantum simulation of materials; please cite
         "P. Giannozzi et al., J. Phys.:Condens. Matter 21 395502 (2009);
          URL http://www.quantum-espresso.org", 
     in publications or presentations arising from this work. More details at
     http://www.quantum-espresso.org/quote

     Parallel version (MPI), running on     4 processors
     R & G space division:  proc/nbgrp/npool/nimage =       4
     Waiting for input...
     Reading input from standard input
     Message from routine read_cards :
     DEPRECATED: no units specified in ATOMIC_POSITIONS card
     Message from routine read_cards :
     ATOMIC_POSITIONS: units set to alat

     Current dimensions of program PWSCF are:
     Max number of different atomic species (ntypx) = 10
     Max number of k-points (npk) =  40000
     Max angular momentum in pseudopotentials (lmaxx) =  3

     Subspace diagonalization in iterative solution of the eigenvalue problem:
     a serial algorithm will be used


     Parallelization info
     --------------------
     sticks:   dense  smooth     PW     G-vecs:    dense   smooth      PW
     Min         518     259     78                15621     5552     929
     Max         520     260     79                15622     5556     931
     Sum        2077    1039    313                62487    22219    3719



     bravais-lattice index     =            2
     lattice parameter (alat)  =      12.2800  a.u.
     unit-cell volume          =     462.9511 (a.u.)^3
     number of atoms/cell      =            2
     number of atomic types    =            1
     number of electrons       =        28.00
     number of Kohn-Sham states=           14
     kinetic-energy cutoff     =      50.0000  Ry
     charge density cutoff     =     400.0000  Ry
     convergence threshold     =      1.0E-08
     mixing beta               =       0.7000
     number of iterations used =            8  plain     mixing
     Exchange-correlation      =  SLA  PW   PBX  PBC ( 1  4  3  4 0 0)

     celldm(1)=  12.280000  celldm(2)=   0.000000  celldm(3)=   0.000000
     celldm(4)=   0.000000  celldm(5)=   0.000000  celldm(6)=   0.000000

     crystal axes: (cart. coord. in units of alat)
               a(1) = (  -0.500000   0.000000   0.500000 )  
               a(2) = (   0.000000   0.500000   0.500000 )  
               a(3) = (  -0.500000   0.500000   0.000000 )  

     reciprocal axes: (cart. coord. in units 2 pi/alat)
               b(1) = ( -1.000000 -1.000000  1.000000 )  
               b(2) = (  1.000000  1.000000  1.000000 )  
               b(3) = ( -1.000000  1.000000 -1.000000 )  


     PseudoPot. # 1 for Sn read from file:
     /home/s1333534/quantum_espresso/qe-6.1/pseudo/sn_pbe_v1.4.uspp.F.UPF
     MD5 check sum: 469debedee59599fedebd795477fea03
     Pseudo is Ultrasoft + core correction, Zval = 14.0
     Generated by new atomic code, or converted to UPF format
     Using radial grid of  891 points,  6 beta functions with: 
                l(1) =   0
                l(2) =   0
                l(3) =   1
                l(4) =   1
                l(5) =   2
                l(6) =   2
     Q(r) pseudized with  8 coefficients,  rinner =    1.350   1.350   1.350
                                                       1.350   1.350

     atomic species   valence    mass     pseudopotential
        Sn            14.00   118.71000     Sn( 1.00)

     48 Sym. Ops., with inversion, found (24 have fractional translation)



   Cartesian axes

     site n.     atom                  positions (alat units)
         1           Sn  tau(   1) = (   0.0000000   0.0000000   0.0000000  )
         2           Sn  tau(   2) = (   0.2500000   0.2500000   0.2500000  )

     number of k points=    60
                       cart. coord. in units 2pi/alat
        k(    1) = (  -0.0625000   0.0625000   0.0625000), wk =   0.0078125
        k(    2) = (  -0.1875000   0.1875000  -0.0625000), wk =   0.0234375
        k(    3) = (  -0.3125000   0.3125000  -0.1875000), wk =   0.0234375
        k(    4) = (  -0.4375000   0.4375000  -0.3125000), wk =   0.0234375
        k(    5) = (   0.4375000  -0.4375000   0.5625000), wk =   0.0234375
        k(    6) = (   0.3125000  -0.3125000   0.4375000), wk =   0.0234375
        k(    7) = (   0.1875000  -0.1875000   0.3125000), wk =   0.0234375
        k(    8) = (   0.0625000  -0.0625000   0.1875000), wk =   0.0234375
        k(    9) = (  -0.0625000   0.3125000   0.0625000), wk =   0.0234375
        k(   10) = (  -0.1875000   0.4375000  -0.0625000), wk =   0.0468750
        k(   11) = (  -0.3125000   0.5625000  -0.1875000), wk =   0.0468750
        k(   12) = (   0.5625000  -0.3125000   0.6875000), wk =   0.0468750
        k(   13) = (   0.4375000  -0.1875000   0.5625000), wk =   0.0468750
        k(   14) = (   0.3125000  -0.0625000   0.4375000), wk =   0.0468750
        k(   15) = (   0.1875000   0.0625000   0.3125000), wk =   0.0468750
        k(   16) = (  -0.0625000   0.5625000   0.0625000), wk =   0.0234375
        k(   17) = (  -0.1875000   0.6875000  -0.0625000), wk =   0.0468750
        k(   18) = (   0.6875000  -0.1875000   0.8125000), wk =   0.0468750
        k(   19) = (   0.5625000  -0.0625000   0.6875000), wk =   0.0468750
        k(   20) = (   0.4375000   0.0625000   0.5625000), wk =   0.0468750
        k(   21) = (   0.3125000   0.1875000   0.4375000), wk =   0.0468750
        k(   22) = (  -0.0625000   0.8125000   0.0625000), wk =   0.0234375
        k(   23) = (   0.8125000  -0.0625000   0.9375000), wk =   0.0468750
        k(   24) = (   0.6875000   0.0625000   0.8125000), wk =   0.0468750
        k(   25) = (   0.5625000   0.1875000   0.6875000), wk =   0.0468750
        k(   26) = (   0.4375000   0.3125000   0.5625000), wk =   0.0468750
        k(   27) = (  -0.0625000  -0.9375000   0.0625000), wk =   0.0234375
        k(   28) = (  -0.1875000  -0.8125000  -0.0625000), wk =   0.0468750
        k(   29) = (  -0.3125000  -0.6875000  -0.1875000), wk =   0.0468750
        k(   30) = (  -0.0625000  -0.6875000   0.0625000), wk =   0.0234375
        k(   31) = (  -0.1875000  -0.5625000  -0.0625000), wk =   0.0468750
        k(   32) = (  -0.0625000  -0.4375000   0.0625000), wk =   0.0234375
        k(   33) = (  -0.1875000   0.1875000   0.1875000), wk =   0.0078125
        k(   34) = (  -0.3125000   0.3125000   0.0625000), wk =   0.0234375
        k(   35) = (  -0.4375000   0.4375000  -0.0625000), wk =   0.0234375
        k(   36) = (   0.4375000  -0.4375000   0.8125000), wk =   0.0234375
        k(   37) = (   0.3125000  -0.3125000   0.6875000), wk =   0.0234375
        k(   38) = (   0.1875000  -0.1875000   0.5625000), wk =   0.0234375
        k(   39) = (  -0.1875000   0.4375000   0.1875000), wk =   0.0234375
        k(   40) = (  -0.3125000   0.5625000   0.0625000), wk =   0.0468750
        k(   41) = (   0.5625000  -0.3125000   0.9375000), wk =   0.0468750
        k(   42) = (   0.4375000  -0.1875000   0.8125000), wk =   0.0468750
        k(   43) = (   0.3125000  -0.0625000   0.6875000), wk =   0.0468750
        k(   44) = (  -0.1875000   0.6875000   0.1875000), wk =   0.0234375
        k(   45) = (   0.6875000  -0.1875000   1.0625000), wk =   0.0468750
        k(   46) = (   0.5625000  -0.0625000   0.9375000), wk =   0.0468750
        k(   47) = (   0.4375000   0.0625000   0.8125000), wk =   0.0468750
        k(   48) = (  -0.1875000  -1.0625000   0.1875000), wk =   0.0234375
        k(   49) = (  -0.3125000  -0.9375000   0.0625000), wk =   0.0468750
        k(   50) = (  -0.1875000  -0.8125000   0.1875000), wk =   0.0234375
        k(   51) = (  -0.3125000   0.3125000   0.3125000), wk =   0.0078125
        k(   52) = (  -0.4375000   0.4375000   0.1875000), wk =   0.0234375
        k(   53) = (   0.4375000  -0.4375000   1.0625000), wk =   0.0234375
        k(   54) = (   0.3125000  -0.3125000   0.9375000), wk =   0.0234375
        k(   55) = (  -0.3125000   0.5625000   0.3125000), wk =   0.0234375
        k(   56) = (   0.5625000  -0.3125000   1.1875000), wk =   0.0468750
        k(   57) = (   0.4375000  -0.1875000   1.0625000), wk =   0.0468750
        k(   58) = (  -0.3125000  -1.1875000   0.3125000), wk =   0.0234375
        k(   59) = (  -0.4375000   0.4375000   0.4375000), wk =   0.0078125
        k(   60) = (   0.4375000  -0.4375000   1.3125000), wk =   0.0234375

     Dense  grid:    62487 G-vectors     FFT dimensions: (  60,  60,  60)

     Smooth grid:    22219 G-vectors     FFT dimensions: (  40,  40,  40)

     Estimated max dynamical RAM per process >      20.56MB

     Estimated total allocated dynamical RAM >      82.23MB

     Initial potential from superposition of free atoms

     starting charge   25.99991, renormalised to   28.00000
     Starting wfc are   18 randomized atomic wfcs

     total cpu time spent up to now is        1.3 secs

     per-process dynamical memory:    24.7 Mb

     Self-consistent Calculation

     iteration #  1     ecut=    50.00 Ry     beta=0.70
     Davidson diagonalization with overlap
     ethr =  1.00E-02,  avg # of iterations =  2.8

     total cpu time spent up to now is        3.7 secs

     total energy              =    -317.49056346 Ry
     Harris-Foulkes estimate   =    -319.53271133 Ry
     estimated scf accuracy    <       2.48884225 Ry

     iteration #  2     ecut=    50.00 Ry     beta=0.70
     Davidson diagonalization with overlap
     ethr =  8.89E-03,  avg # of iterations =  3.0

     total cpu time spent up to now is        6.3 secs

     total energy              =    -318.39132141 Ry
     Harris-Foulkes estimate   =    -318.70783196 Ry
     estimated scf accuracy    <       0.47247321 Ry

     iteration #  3     ecut=    50.00 Ry     beta=0.70
     Davidson diagonalization with overlap
     ethr =  1.69E-03,  avg # of iterations =  2.0

     total cpu time spent up to now is        8.6 secs

     total energy              =    -318.48577913 Ry
     Harris-Foulkes estimate   =    -318.48735693 Ry
     estimated scf accuracy    <       0.00289010 Ry

     iteration #  4     ecut=    50.00 Ry     beta=0.70
     Davidson diagonalization with overlap
     ethr =  1.03E-05,  avg # of iterations =  3.0

     total cpu time spent up to now is       11.0 secs

     total energy              =    -318.48667876 Ry
     Harris-Foulkes estimate   =    -318.48679712 Ry
     estimated scf accuracy    <       0.00017615 Ry

     iteration #  5     ecut=    50.00 Ry     beta=0.70
     Davidson diagonalization with overlap
     ethr =  6.29E-07,  avg # of iterations =  3.0

     total cpu time spent up to now is       13.5 secs

     total energy              =    -318.48673208 Ry
     Harris-Foulkes estimate   =    -318.48673263 Ry
     estimated scf accuracy    <       0.00000127 Ry

     iteration #  6     ecut=    50.00 Ry     beta=0.70
     Davidson diagonalization with overlap
     ethr =  4.54E-09,  avg # of iterations =  4.0

     total cpu time spent up to now is       16.2 secs

     total energy              =    -318.48673281 Ry
     Harris-Foulkes estimate   =    -318.48673287 Ry
     estimated scf accuracy    <       0.00000010 Ry

     iteration #  7     ecut=    50.00 Ry     beta=0.70
     Davidson diagonalization with overlap
     ethr =  3.54E-10,  avg # of iterations =  3.0

     total cpu time spent up to now is       18.7 secs

     End of self-consistent calculation

          k =-0.0625 0.0625 0.0625 (  2734 PWs)   bands (ev):

   -13.8972 -13.8972 -13.8930 -13.8313 -13.8313 -13.5401 -13.5401 -13.5315
   -13.5136 -13.5136  -2.7444   6.5385   7.7998   7.7998

          k =-0.1875 0.1875-0.0625 (  2753 PWs)   bands (ev):

   -13.9119 -13.9053 -13.8892 -13.8181 -13.8099 -13.5679 -13.5572 -13.5277
   -13.5089 -13.4920  -2.5450   5.1888   7.0479   7.6516

          k =-0.3125 0.3125-0.1875 (  2766 PWs)   bands (ev):

   -13.9253 -13.9211 -13.8762 -13.7970 -13.7851 -13.5898 -13.5755 -13.5462
   -13.4889 -13.4786  -2.0693   3.4521   6.5307   7.1890

          k =-0.4375 0.4375-0.3125 (  2777 PWs)   bands (ev):

   -13.9319 -13.9312 -13.8641 -13.7816 -13.7724 -13.5979 -13.5862 -13.5653
   -13.4755 -13.4735  -1.4342   2.0250   6.2781   6.7982

          k = 0.4375-0.4375 0.5625 (  2775 PWs)   bands (ev):

   -13.9356 -13.9311 -13.8610 -13.7740 -13.7731 -13.5962 -13.5931 -13.5690
   -13.4747 -13.4697  -1.1476   1.5345   6.2850   6.6082

          k = 0.3125-0.3125 0.4375 (  2767 PWs)   bands (ev):

   -13.9325 -13.9257 -13.8692 -13.7849 -13.7745 -13.6013 -13.5810 -13.5564
   -13.4820 -13.4723  -1.6455   2.4372   6.5338   6.6590

          k = 0.1875-0.1875 0.3125 (  2764 PWs)   bands (ev):

   -13.9217 -13.9151 -13.8831 -13.8040 -13.7908 -13.5905 -13.5629 -13.5398
   -13.4949 -13.4827  -2.2544   4.0195   6.9490   6.9780

          k = 0.0625-0.0625 0.1875 (  2748 PWs)   bands (ev):

   -13.9046 -13.9011 -13.8939 -13.8261 -13.8162 -13.5663 -13.5392 -13.5275
   -13.5143 -13.4998  -2.6440   5.7768   7.4138   7.4624

          k =-0.0625 0.3125 0.0625 (  2757 PWs)   bands (ev):

   -13.9126 -13.9076 -13.8962 -13.8154 -13.7913 -13.5993 -13.5448 -13.5187
   -13.5095 -13.4918  -2.4441   4.9007   6.9065   6.9148

          k =-0.1875 0.4375-0.0625 (  2769 PWs)   bands (ev):

   -13.9281 -13.9215 -13.8818 -13.7961 -13.7625 -13.6303 -13.5653 -13.5299
   -13.4914 -13.4767  -2.0553   3.6876   6.0614   6.6685

          k =-0.3125 0.5625-0.1875 (  2761 PWs)   bands (ev):

   -13.9448 -13.9322 -13.8551 -13.7744 -13.7458 -13.6424 -13.5880 -13.5605
   -13.4744 -13.4592  -1.4453   2.3211   5.5356   6.3372

          k = 0.5625-0.3125 0.6875 (  2768 PWs)   bands (ev):

   -13.9525 -13.9376 -13.8371 -13.7588 -13.7495 -13.6302 -13.6092 -13.5826
   -13.4662 -13.4515  -0.9404   1.4786   5.2627   6.2626

          k = 0.4375-0.1875 0.5625 (  2768 PWs)   bands (ev):

   -13.9482 -13.9375 -13.8405 -13.7724 -13.7478 -13.6290 -13.5936 -13.5849
   -13.4656 -13.4570  -1.2381   1.9514   5.2555   6.4908

          k = 0.3125-0.0625 0.4375 (  2769 PWs)   bands (ev):

   -13.9337 -13.9307 -13.8637 -13.7916 -13.7621 -13.6211 -13.5777 -13.5519
   -13.4801 -13.4694  -1.8755   3.2092   5.6176   6.9178

          k = 0.1875 0.0625 0.3125 (  2764 PWs)   bands (ev):

   -13.9199 -13.9126 -13.8860 -13.8095 -13.7902 -13.5953 -13.5587 -13.5278
   -13.5033 -13.4835  -2.3481   4.4531   6.5451   7.2412

          k =-0.0625 0.5625 0.0625 (  2766 PWs)   bands (ev):

   -13.9301 -13.9266 -13.8878 -13.7773 -13.7252 -13.6763 -13.5796 -13.5152
   -13.4835 -13.4781  -1.7533   3.1303   5.9337   6.0294

          k =-0.1875 0.6875-0.0625 (  2764 PWs)   bands (ev):

   -13.9450 -13.9384 -13.8588 -13.7520 -13.7067 -13.6954 -13.6059 -13.5474
   -13.4665 -13.4590  -1.1980   2.1473   5.3191   5.7452

          k = 0.6875-0.1875 0.8125 (  2757 PWs)   bands (ev):

   -13.9619 -13.9439 -13.8225 -13.7280 -13.7089 -13.6889 -13.6344 -13.5855
   -13.4579 -13.4395  -0.5710   1.2735   4.6930   5.7120

          k = 0.5625-0.0625 0.6875 (  2759 PWs)   bands (ev):

   -13.9648 -13.9454 -13.8119 -13.7349 -13.7119 -13.6689 -13.6442 -13.5975
   -13.4552 -13.4371  -0.6377   1.3586   4.4572   5.9888

          k = 0.4375 0.0625 0.5625 (  2762 PWs)   bands (ev):

   -13.9516 -13.9409 -13.8320 -13.7717 -13.7356 -13.6425 -13.5962 -13.5909
   -13.4605 -13.4540  -1.2721   2.1637   4.8759   6.4643

          k = 0.3125 0.1875 0.4375 (  2761 PWs)   bands (ev):

   -13.9339 -13.9264 -13.8671 -13.7890 -13.7681 -13.6125 -13.5775 -13.5529
   -13.4825 -13.4701  -1.7969   2.8762   6.0407   6.8168

          k =-0.0625 0.8125 0.0625 (  2776 PWs)   bands (ev):

   -13.9444 -13.9413 -13.8522 -13.7553 -13.7236 -13.6518 -13.6326 -13.5534
   -13.4613 -13.4582  -0.6993   1.4464   5.3559   5.4950

          k = 0.8125-0.0625 0.9375 (  2770 PWs)   bands (ev):

   -13.9543 -13.9475 -13.8135 -13.7769 -13.6944 -13.6632 -13.6291 -13.5931
   -13.4530 -13.4464  -0.0285   0.6725   4.9786   5.3309

          k = 0.6875 0.0625 0.8125 (  2766 PWs)   bands (ev):

   -13.9659 -13.9471 -13.8079 -13.7265 -13.7016 -13.6747 -13.6604 -13.5988
   -13.4534 -13.4350  -0.1605   0.8416   4.4920   5.5903

          k = 0.5625 0.1875 0.6875 (  2762 PWs)   bands (ev):

   -13.9604 -13.9424 -13.8218 -13.7447 -13.7302 -13.6519 -13.6283 -13.5915
   -13.4594 -13.4423  -0.7439   1.3783   4.7601   6.0799

          k = 0.4375 0.3125 0.5625 (  2777 PWs)   bands (ev):

   -13.9422 -13.9332 -13.8525 -13.7735 -13.7632 -13.6104 -13.5930 -13.5747
   -13.4721 -13.4632  -1.1867   1.6960   5.8190   6.5359

          k =-0.0625-0.9375 0.0625 (  2767 PWs)   bands (ev):

   -13.9473 -13.9444 -13.8249 -13.7916 -13.6932 -13.6624 -13.6160 -13.5822
   -13.4559 -13.4530  -0.0512   0.6693   5.2381   5.3853

          k =-0.1875-0.8125-0.0625 (  2768 PWs)   bands (ev):

   -13.9510 -13.9443 -13.8384 -13.7433 -13.7242 -13.6614 -13.6335 -13.5675
   -13.4581 -13.4510  -0.6462   1.3933   5.0938   5.4693

          k =-0.3125-0.6875-0.1875 (  2764 PWs)   bands (ev):

   -13.9547 -13.9386 -13.8400 -13.7534 -13.7214 -13.6728 -13.6086 -13.5711
   -13.4655 -13.4482  -1.0278   1.7869   5.0621   5.9594

          k =-0.0625-0.6875 0.0625 (  2777 PWs)   bands (ev):

   -13.9383 -13.9351 -13.8733 -13.7522 -13.7164 -13.6885 -13.6047 -13.5305
   -13.4709 -13.4672  -1.2692   2.2712   5.5894   5.7117

          k =-0.1875-0.5625-0.0625 (  2768 PWs)   bands (ev):

   -13.9368 -13.9305 -13.8733 -13.7765 -13.7305 -13.6678 -13.5823 -13.5348
   -13.4783 -13.4686  -1.6702   2.9159   5.6458   6.1518

          k =-0.0625-0.4375 0.0625 (  2759 PWs)   bands (ev):

   -13.9208 -13.9165 -13.8952 -13.7988 -13.7599 -13.6367 -13.5590 -13.5115
   -13.4977 -13.4870  -2.1463   4.0112   6.3794   6.4374

          k =-0.1875 0.1875 0.1875 (  2755 PWs)   bands (ev):

   -13.9126 -13.9126 -13.8858 -13.8088 -13.8088 -13.5647 -13.5647 -13.5410
   -13.4940 -13.4940  -2.4477   4.6732   7.3621   7.3621

          k =-0.3125 0.3125 0.0625 (  2767 PWs)   bands (ev):

   -13.9265 -13.9215 -13.8746 -13.8013 -13.7815 -13.5954 -13.5766 -13.5386
   -13.4931 -13.4756  -2.1575   3.8481   6.0682   7.3340

          k =-0.4375 0.4375-0.0625 (  2767 PWs)   bands (ev):

   -13.9420 -13.9366 -13.8463 -13.7852 -13.7531 -13.6207 -13.5901 -13.5738
   -13.4667 -13.4646  -1.6118   2.6871   5.2034   6.8750

          k = 0.4375-0.4375 0.8125 (  2767 PWs)   bands (ev):

   -13.9548 -13.9395 -13.8302 -13.7616 -13.7426 -13.6253 -13.6187 -13.5900
   -13.4624 -13.4498  -0.9930   1.6269   4.9784   6.4140

          k = 0.3125-0.3125 0.6875 (  2762 PWs)   bands (ev):

   -13.9544 -13.9361 -13.8404 -13.7545 -13.7395 -13.6503 -13.6085 -13.5739
   -13.4679 -13.4486  -0.9781   1.6026   5.1794   6.1540

          k = 0.1875-0.1875 0.5625 (  2761 PWs)   bands (ev):

   -13.9419 -13.9283 -13.8677 -13.7754 -13.7375 -13.6576 -13.5842 -13.5422
   -13.4805 -13.4626  -1.5934   2.6775   5.6975   6.1612

          k =-0.1875 0.4375 0.1875 (  2762 PWs)   bands (ev):

   -13.9318 -13.9204 -13.8774 -13.7931 -13.7662 -13.6229 -13.5688 -13.5376
   -13.4905 -13.4731  -1.9681   3.3476   6.3148   6.5303

          k =-0.3125 0.5625 0.0625 (  2762 PWs)   bands (ev):

   -13.9431 -13.9375 -13.8520 -13.7754 -13.7360 -13.6543 -13.5869 -13.5627
   -13.4681 -13.4616  -1.5073   2.5670   5.2449   6.3404

          k = 0.5625-0.3125 0.9375 (  2759 PWs)   bands (ev):

   -13.9590 -13.9465 -13.8176 -13.7509 -13.7125 -13.6736 -13.6191 -13.5948
   -13.4550 -13.4441  -0.8684   1.6499   4.6633   5.9106

          k = 0.4375-0.1875 0.8125 (  2756 PWs)   bands (ev):

   -13.9632 -13.9475 -13.8102 -13.7340 -13.7081 -13.6815 -13.6359 -13.5986
   -13.4538 -13.4384  -0.5368   1.2193   4.6281   5.6744

          k = 0.3125-0.0625 0.6875 (  2765 PWs)   bands (ev):

   -13.9517 -13.9442 -13.8370 -13.7529 -13.7071 -13.6888 -13.6088 -13.5732
   -13.4591 -13.4519  -1.0608   1.9263   4.9725   5.8074

          k =-0.1875 0.6875 0.1875 (  2761 PWs)   bands (ev):

   -13.9510 -13.9356 -13.8528 -13.7521 -13.7092 -13.6906 -13.6068 -13.5548
   -13.4692 -13.4523  -1.1382   2.0085   5.1978   5.8688

          k = 0.6875-0.1875 1.0625 (  2759 PWs)   bands (ev):

   -13.9577 -13.9500 -13.8172 -13.7267 -13.7235 -13.6753 -13.6360 -13.5894
   -13.4516 -13.4439  -0.5477   1.2894   4.8091   5.3997

          k = 0.5625-0.0625 0.9375 (  2761 PWs)   bands (ev):

   -13.9643 -13.9578 -13.7778 -13.7359 -13.7012 -13.6708 -13.6592 -13.6241
   -13.4427 -13.4364   0.0306   0.6771   4.6153   5.0479

          k = 0.4375 0.0625 0.8125 (  2755 PWs)   bands (ev):

   -13.9630 -13.9530 -13.7990 -13.7269 -13.7064 -13.6854 -13.6436 -13.6069
   -13.4480 -13.4382  -0.4191   1.1466   4.5807   5.4006

          k =-0.1875-1.0625 0.1875 (  2772 PWs)   bands (ev):

   -13.9615 -13.9449 -13.8151 -13.7545 -13.6964 -13.6624 -13.6498 -13.5922
   -13.4556 -13.4395  -0.0730   0.7313   4.6744   5.5650

          k =-0.3125-0.9375 0.0625 (  2766 PWs)   bands (ev):

   -13.9607 -13.9534 -13.7946 -13.7545 -13.6970 -13.6653 -13.6477 -13.6104
   -13.4472 -13.4399   0.0053   0.6759   4.7451   5.1694

          k =-0.1875-0.8125 0.1875 (  2762 PWs)   bands (ev):

   -13.9578 -13.9416 -13.8337 -13.7285 -13.7249 -13.6742 -13.6338 -13.5731
   -13.4606 -13.4439  -0.6162   1.3455   4.8509   5.6675

          k =-0.3125 0.3125 0.3125 (  2779 PWs)   bands (ev):

   -13.9242 -13.9242 -13.8762 -13.7881 -13.7881 -13.5826 -13.5826 -13.5532
   -13.4823 -13.4823  -1.8961   2.9383   6.9440   6.9440

          k =-0.4375 0.4375 0.1875 (  2770 PWs)   bands (ev):

   -13.9380 -13.9344 -13.8537 -13.7838 -13.7617 -13.6108 -13.5863 -13.5716
   -13.4706 -13.4682  -1.5492   2.3960   5.6431   6.8511

          k = 0.4375-0.4375 1.0625 (  2757 PWs)   bands (ev):

   -13.9595 -13.9422 -13.8204 -13.7571 -13.7274 -13.6409 -13.6293 -13.5938
   -13.4583 -13.4443  -0.9764   1.7536   4.6019   6.3660

          k = 0.3125-0.3125 0.9375 (  2756 PWs)   bands (ev):

   -13.9673 -13.9443 -13.8131 -13.7077 -13.7073 -13.6910 -13.6552 -13.5950
   -13.4559 -13.4338  -0.3919   1.0818   4.3933   5.9058

          k =-0.3125 0.5625 0.3125 (  2767 PWs)   bands (ev):

   -13.9437 -13.9303 -13.8563 -13.7736 -13.7580 -13.6251 -13.5900 -13.5631
   -13.4766 -13.4606  -1.3312   1.9884   5.8332   6.3841

          k = 0.5625-0.3125 1.1875 (  2769 PWs)   bands (ev):

   -13.9571 -13.9423 -13.8263 -13.7543 -13.7293 -13.6554 -13.6142 -13.5892
   -13.4603 -13.4462  -0.8863   1.5562   4.9084   6.0329

          k = 0.4375-0.1875 1.0625 (  2765 PWs)   bands (ev):

   -13.9664 -13.9513 -13.7976 -13.7174 -13.7028 -13.6879 -13.6560 -13.6078
   -13.4496 -13.4347  -0.2821   0.9881   4.4633   5.4885

          k =-0.3125-1.1875 0.3125 (  2764 PWs)   bands (ev):

   -13.9628 -13.9416 -13.8242 -13.7305 -13.7214 -13.6736 -13.6327 -13.5861
   -13.4606 -13.4391  -0.6333   1.2871   4.6732   5.9904

          k =-0.4375 0.4375 0.4375 (  2770 PWs)   bands (ev):

   -13.9294 -13.9294 -13.8688 -13.7778 -13.7778 -13.5900 -13.5900 -13.5621
   -13.4763 -13.4763  -1.2890   1.7142   6.7141   6.7141

          k = 0.4375-0.4375 1.3125 (  2759 PWs)   bands (ev):

   -13.9458 -13.9349 -13.8456 -13.7675 -13.7608 -13.6064 -13.6053 -13.5810
   -13.4685 -13.4589  -1.0449   1.5158   5.5908   6.5006

     highest occupied level (ev):     7.7998

!    total energy              =    -318.48673284 Ry
     Harris-Foulkes estimate   =    -318.48673284 Ry
     estimated scf accuracy    <          1.8E-09 Ry

     The total energy is the sum of the following terms:

     one-electron contribution =    -155.63144337 Ry
     hartree contribution      =      95.13135902 Ry
     xc contribution           =     -86.03022884 Ry
     ewald contribution        =    -171.95641965 Ry

     convergence has been achieved in   7 iterations


     Computing stress (Cartesian axis) and pressure

          total   stress  (Ry/bohr**3)                   (kbar)     P=   10.89
   0.00007400  -0.00000000  -0.00000000         10.89     -0.00     -0.00
  -0.00000000   0.00007400   0.00000000         -0.00     10.89      0.00
  -0.00000000   0.00000000   0.00007400         -0.00      0.00     10.89


     Writing output data file sn.a.12.28.8.save

     init_run     :      1.18s CPU      1.22s WALL (       1 calls)
     electrons    :     16.91s CPU     17.46s WALL (       1 calls)
     stress       :      0.93s CPU      0.94s WALL (       1 calls)

     Called by init_run:
     wfcinit      :      0.72s CPU      0.74s WALL (       1 calls)
     potinit      :      0.07s CPU      0.07s WALL (       1 calls)

     Called by electrons:
     c_bands      :     13.47s CPU     13.81s WALL (       7 calls)
     sum_band     :      2.63s CPU      2.78s WALL (       7 calls)
     v_of_rho     :      0.36s CPU      0.37s WALL (       8 calls)
     newd         :      0.49s CPU      0.55s WALL (       8 calls)
     mix_rho      :      0.03s CPU      0.03s WALL (       7 calls)

     Called by c_bands:
     init_us_2    :      0.36s CPU      0.37s WALL (     960 calls)
     cegterg      :     12.81s CPU     13.15s WALL (     420 calls)

     Called by sum_band:
     sum_band:bec :      0.00s CPU      0.00s WALL (     420 calls)
     addusdens    :      0.50s CPU      0.60s WALL (       7 calls)

     Called by *egterg:
     h_psi        :     11.09s CPU     11.42s WALL (    1732 calls)
     s_psi        :      0.19s CPU      0.20s WALL (    1732 calls)
     g_psi        :      0.07s CPU      0.07s WALL (    1252 calls)
     cdiaghg      :      0.73s CPU      0.73s WALL (    1672 calls)

     Called by h_psi:
     h_psi:pot    :     11.00s CPU     11.33s WALL (    1732 calls)
     h_psi:calbec :      0.46s CPU      0.47s WALL (    1732 calls)
     vloc_psi     :     10.30s CPU     10.60s WALL (    1732 calls)
     add_vuspsi   :      0.24s CPU      0.25s WALL (    1732 calls)

     General routines
     calbec       :      0.60s CPU      0.61s WALL (    2212 calls)
     fft          :      0.18s CPU      0.19s WALL (     138 calls)
     ffts         :      0.01s CPU      0.01s WALL (      15 calls)
     fftw         :      9.76s CPU     10.00s WALL (   45650 calls)
     interpolate  :      0.03s CPU      0.03s WALL (      15 calls)
     davcio       :      0.00s CPU      0.00s WALL (      60 calls)

     Parallel routines
     fft_scatter  :      1.64s CPU      1.65s WALL (   45803 calls)

     PWSCF        :    19.15s CPU        19.82s WALL


   This run was terminated on:   1:33:49  23Nov2017            

=------------------------------------------------------------------------------=
   JOB DONE.
=------------------------------------------------------------------------------=
