
     Program PWSCF v.6.1 (svn rev. 13369) starts on 21Nov2017 at 19:14:46 

     This program is part of the open-source Quantum ESPRESSO suite
     for quantum simulation of materials; please cite
         "P. Giannozzi et al., J. Phys.:Condens. Matter 21 395502 (2009);
          URL http://www.quantum-espresso.org", 
     in publications or presentations arising from this work. More details at
     http://www.quantum-espresso.org/quote

     Parallel version (MPI), running on     4 processors
     R & G space division:  proc/nbgrp/npool/nimage =       4
     Waiting for input...
     Reading input from standard input

     Current dimensions of program PWSCF are:
     Max number of different atomic species (ntypx) = 10
     Max number of k-points (npk) =  40000
     Max angular momentum in pseudopotentials (lmaxx) =  3

     Subspace diagonalization in iterative solution of the eigenvalue problem:
     a serial algorithm will be used


   Info: using nr1, nr2, nr3 values from input

     Parallelization info
     --------------------
     sticks:   dense  smooth     PW     G-vecs:    dense   smooth      PW
     Min        1271     513    207                18580     4707    1221
     Max        1272     514    208                18581     4708    1222
     Sum        5085    2053    829                74321    18829    4885



     bravais-lattice index     =            0
     lattice parameter (alat)  =      11.2375  a.u.
     unit-cell volume          =     394.0293 (a.u.)^3
     number of atoms/cell      =            2
     number of atomic types    =            1
     number of electrons       =        28.00
     number of Kohn-Sham states=           18
     kinetic-energy cutoff     =      50.0000  Ry
     charge density cutoff     =     500.0000  Ry
     convergence threshold     =      1.0E-08
     mixing beta               =       0.7000
     number of iterations used =            8  plain     mixing
     Exchange-correlation      =  SLA  PW   PBX  PBC ( 1  4  3  4 0 0)
     nstep                     =           50


     celldm(1)=  11.237464  celldm(2)=   0.000000  celldm(3)=   0.000000
     celldm(4)=   0.000000  celldm(5)=   0.000000  celldm(6)=   0.000000

     crystal axes: (cart. coord. in units of alat)
               a(1) = (   1.009693   0.000000  -0.000000 )  
               a(2) = (  -0.000000   1.009693  -0.000000 )  
               a(3) = (   0.504847   0.504847   0.272361 )  

     reciprocal axes: (cart. coord. in units 2 pi/alat)
               b(1) = (  0.990400  0.000000 -1.835800 )  
               b(2) = ( -0.000000  0.990400 -1.835800 )  
               b(3) = (  0.000000  0.000000  3.671600 )  


     PseudoPot. # 1 for Sn read from file:
     /home/s1333534/quantum_espresso/qe-6.1/pseudo/sn_pbe_v1.4.uspp.F.UPF
     MD5 check sum: 469debedee59599fedebd795477fea03
     Pseudo is Ultrasoft + core correction, Zval = 14.0
     Generated by new atomic code, or converted to UPF format
     Using radial grid of  891 points,  6 beta functions with: 
                l(1) =   0
                l(2) =   0
                l(3) =   1
                l(4) =   1
                l(5) =   2
                l(6) =   2
     Q(r) pseudized with  8 coefficients,  rinner =    1.350   1.350   1.350
                                                       1.350   1.350

     atomic species   valence    mass     pseudopotential
        Sn            14.00   118.71000     Sn( 1.00)

     16 Sym. Ops., with inversion, found (12 have fractional translation)



   Cartesian axes

     site n.     atom                  positions (alat units)
         1           Sn  tau(   1) = (   1.0096932   1.2621165   0.2042706  )
         2           Sn  tau(   2) = (   0.5048466   0.2524233   0.0680902  )

     number of k points=   687  Marzari-Vanderbilt smearing, width (Ry)=  0.0200

     Number of k-points >= 100: set verbosity='high' to print them.

     Dense  grid:    74321 G-vectors     FFT dimensions: (  80,  80,  80)

     Smooth grid:    18829 G-vectors     FFT dimensions: (  54,  54,  40)

     Estimated max dynamical RAM per process >     129.02MB

     Estimated total allocated dynamical RAM >     516.08MB

     Initial potential from superposition of free atoms

     starting charge   25.99991, renormalised to   28.00000
     Starting wfc are   18 randomized atomic wfcs

     total cpu time spent up to now is       25.6 secs

     per-process dynamical memory:   145.0 Mb

     Self-consistent Calculation

     iteration #  1     ecut=    50.00 Ry     beta=0.70
     Davidson diagonalization with overlap
     ethr =  1.00E-02,  avg # of iterations =  3.4

     total cpu time spent up to now is      119.4 secs

     total energy              =    -317.54952816 Ry
     Harris-Foulkes estimate   =    -319.51674561 Ry
     estimated scf accuracy    <       2.40891323 Ry

     iteration #  2     ecut=    50.00 Ry     beta=0.70
     Davidson diagonalization with overlap
     ethr =  8.60E-03,  avg # of iterations =  2.6

     total cpu time spent up to now is      205.5 secs

     total energy              =    -318.39968177 Ry
     Harris-Foulkes estimate   =    -318.67881285 Ry
     estimated scf accuracy    <       0.40514209 Ry

     iteration #  3     ecut=    50.00 Ry     beta=0.70
     Davidson diagonalization with overlap
     ethr =  1.45E-03,  avg # of iterations =  2.0

     total cpu time spent up to now is      281.1 secs

     total energy              =    -318.48272966 Ry
     Harris-Foulkes estimate   =    -318.48384263 Ry
     estimated scf accuracy    <       0.00203703 Ry

     iteration #  4     ecut=    50.00 Ry     beta=0.70
     Davidson diagonalization with overlap
     ethr =  7.28E-06,  avg # of iterations =  3.4

     total cpu time spent up to now is      369.5 secs

     total energy              =    -318.48321595 Ry
     Harris-Foulkes estimate   =    -318.48328901 Ry
     estimated scf accuracy    <       0.00010824 Ry

     iteration #  5     ecut=    50.00 Ry     beta=0.70
     Davidson diagonalization with overlap
     ethr =  3.87E-07,  avg # of iterations =  2.0

     total cpu time spent up to now is      445.0 secs

     total energy              =    -318.48324342 Ry
     Harris-Foulkes estimate   =    -318.48324332 Ry
     estimated scf accuracy    <       0.00000013 Ry

     iteration #  6     ecut=    50.00 Ry     beta=0.70
     Davidson diagonalization with overlap
     ethr =  4.51E-10,  avg # of iterations =  4.0

     total cpu time spent up to now is      550.3 secs

     End of self-consistent calculation

     Number of k-points >= 100: set verbosity='high' to print the bands.

     the Fermi energy is     9.6747 ev

!    total energy              =    -318.48324367 Ry
     Harris-Foulkes estimate   =    -318.48324367 Ry
     estimated scf accuracy    <          6.3E-09 Ry

     The total energy is the sum of the following terms:

     one-electron contribution =    -118.74007174 Ry
     hartree contribution      =      78.75597299 Ry
     xc contribution           =     -85.94780890 Ry
     ewald contribution        =    -192.55151915 Ry
     smearing contrib. (-TS)   =       0.00018312 Ry

     convergence has been achieved in   6 iterations

     Forces acting on atoms (cartesian axes, Ry/au):

     atom    1 type  1   force =     0.00000000    0.00000000   -0.00000000
     atom    2 type  1   force =     0.00000000    0.00000000   -0.00000000

     Total force =     0.000000     Total SCF correction =     0.000000


     Computing stress (Cartesian axis) and pressure

          total   stress  (Ry/bohr**3)                   (kbar)     P=  -33.19
  -0.00022554   0.00000000   0.00000000        -33.18      0.00      0.00
   0.00000000  -0.00022554   0.00000000          0.00    -33.18      0.00
   0.00000000   0.00000000  -0.00022573          0.00      0.00    -33.21


     BFGS Geometry Optimization

     number of scf cycles    =   1
     number of bfgs steps    =   0

     enthalpy new            =    -318.4832436661 Ry

     new trust radius        =       0.0224041835 bohr
     new conv_thr            =       0.0000000100 Ry

     new unit-cell volume =    387.39964 a.u.^3 (    57.40670 Ang^3 )
     density =      6.86758 g/cm^3

CELL_PARAMETERS (alat= 11.23746432)
   1.004000004   0.000000000   0.000000000
  -0.000000000   1.004000004   0.000000000
   0.502000002   0.502000002   0.270823788

ATOMIC_POSITIONS (crystal)
Sn       0.625000000   0.875000000   0.750000000
Sn       0.375000000   0.125000000   0.250000000



     Writing output data file sn.beta.relax.save
     NEW-OLD atomic charge density approx. for the potential
     extrapolated charge   27.55506, renormalised to   28.00000

     total cpu time spent up to now is      560.8 secs

     per-process dynamical memory:   152.5 Mb

     Self-consistent Calculation

     iteration #  1     ecut=    50.00 Ry     beta=0.70
     Davidson diagonalization with overlap
     ethr =  1.00E-06,  avg # of iterations =  4.3

     total cpu time spent up to now is      671.1 secs

     total energy              =    -318.44744943 Ry
     Harris-Foulkes estimate   =    -320.12738677 Ry
     estimated scf accuracy    <       0.02412571 Ry

     iteration #  2     ecut=    50.00 Ry     beta=0.70
     Davidson diagonalization with overlap
     ethr =  8.62E-05,  avg # of iterations =  3.1

     total cpu time spent up to now is      768.5 secs

     total energy              =    -318.48380777 Ry
     Harris-Foulkes estimate   =    -318.50120021 Ry
     estimated scf accuracy    <       0.03534347 Ry

     iteration #  3     ecut=    50.00 Ry     beta=0.70
     Davidson diagonalization with overlap
     ethr =  8.62E-05,  avg # of iterations =  2.0

     total cpu time spent up to now is      837.4 secs

     total energy              =    -318.48510503 Ry
     Harris-Foulkes estimate   =    -318.48695545 Ry
     estimated scf accuracy    <       0.00516910 Ry

     iteration #  4     ecut=    50.00 Ry     beta=0.70
     Davidson diagonalization with overlap
     ethr =  1.85E-05,  avg # of iterations =  1.1

     total cpu time spent up to now is      896.6 secs

     total energy              =    -318.48458255 Ry
     Harris-Foulkes estimate   =    -318.48535232 Ry
     estimated scf accuracy    <       0.00175230 Ry

     iteration #  5     ecut=    50.00 Ry     beta=0.70
     Davidson diagonalization with overlap
     ethr =  6.26E-06,  avg # of iterations =  1.6

     total cpu time spent up to now is      958.8 secs

     total energy              =    -318.48452670 Ry
     Harris-Foulkes estimate   =    -318.48472520 Ry
     estimated scf accuracy    <       0.00035686 Ry

     iteration #  6     ecut=    50.00 Ry     beta=0.70
     Davidson diagonalization with overlap
     ethr =  1.27E-06,  avg # of iterations =  3.0

     total cpu time spent up to now is     1043.2 secs

     total energy              =    -318.48462181 Ry
     Harris-Foulkes estimate   =    -318.48463361 Ry
     estimated scf accuracy    <       0.00001743 Ry

     iteration #  7     ecut=    50.00 Ry     beta=0.70
     Davidson diagonalization with overlap
     ethr =  6.22E-08,  avg # of iterations =  2.1

     total cpu time spent up to now is     1119.2 secs

     total energy              =    -318.48462642 Ry
     Harris-Foulkes estimate   =    -318.48462668 Ry
     estimated scf accuracy    <       0.00000134 Ry

     iteration #  8     ecut=    50.00 Ry     beta=0.70
     Davidson diagonalization with overlap
     ethr =  4.77E-09,  avg # of iterations =  2.0

     total cpu time spent up to now is     1194.7 secs

     total energy              =    -318.48462764 Ry
     Harris-Foulkes estimate   =    -318.48462665 Ry
     estimated scf accuracy    <       0.00000087 Ry

     iteration #  9     ecut=    50.00 Ry     beta=0.70
     Davidson diagonalization with overlap
     ethr =  3.12E-09,  avg # of iterations =  2.5

     total cpu time spent up to now is     1274.9 secs

     total energy              =    -318.48462687 Ry
     Harris-Foulkes estimate   =    -318.48462809 Ry
     estimated scf accuracy    <       0.00000315 Ry

     iteration # 10     ecut=    50.00 Ry     beta=0.70
     Davidson diagonalization with overlap
     ethr =  3.12E-09,  avg # of iterations =  2.0

     total cpu time spent up to now is     1351.4 secs

     total energy              =    -318.48462639 Ry
     Harris-Foulkes estimate   =    -318.48462702 Ry
     estimated scf accuracy    <       0.00000092 Ry

     iteration # 11     ecut=    50.00 Ry     beta=0.70
     Davidson diagonalization with overlap
     ethr =  3.12E-09,  avg # of iterations =  2.0

     total cpu time spent up to now is     1430.3 secs

     End of self-consistent calculation

     Number of k-points >= 100: set verbosity='high' to print the bands.

     the Fermi energy is     9.9155 ev

!    total energy              =    -318.48462659 Ry
     Harris-Foulkes estimate   =    -318.48462659 Ry
     estimated scf accuracy    <          2.3E-09 Ry

     The total energy is the sum of the following terms:

     one-electron contribution =    -117.00237572 Ry
     hartree contribution      =      78.12668069 Ry
     xc contribution           =     -85.96541792 Ry
     ewald contribution        =    -193.64369414 Ry
     smearing contrib. (-TS)   =       0.00018049 Ry

     convergence has been achieved in  11 iterations

     Forces acting on atoms (cartesian axes, Ry/au):

     atom    1 type  1   force =    -0.00000000   -0.00000000    0.00000000
     atom    2 type  1   force =     0.00000000    0.00000000    0.00000000

     Total force =     0.000000     Total SCF correction =     0.000000


     Computing stress (Cartesian axis) and pressure

          total   stress  (Ry/bohr**3)                   (kbar)     P=  -27.06
  -0.00018369  -0.00000000   0.00000000        -27.02     -0.00      0.00
  -0.00000000  -0.00018369   0.00000000         -0.00    -27.02      0.00
   0.00000000   0.00000000  -0.00018442          0.00      0.00    -27.13


     number of scf cycles    =   2
     number of bfgs steps    =   1

     enthalpy old            =    -318.4832436661 Ry
     enthalpy new            =    -318.4846265870 Ry

     CASE: enthalpy_new < enthalpy_old


     WARNING: bfgs curvature condition failed, Theta= 0.992
     new trust radius        =       0.0335114761 bohr
     new conv_thr            =            1.0E-10 Ry

     new unit-cell volume =    377.61543 a.u.^3 (    55.95683 Ang^3 )
     density =      7.04552 g/cm^3

CELL_PARAMETERS (alat= 11.23746432)
   0.995486707  -0.000000000   0.000000000
  -0.000000000   0.995486707   0.000000000
   0.497743354   0.497743354   0.268518258

ATOMIC_POSITIONS (crystal)
Sn       0.625000000   0.875000000   0.750000000
Sn       0.375000000   0.125000000   0.250000000



     Writing output data file sn.beta.relax.save
     NEW-OLD atomic charge density approx. for the potential
     extrapolated charge   27.32633, renormalised to   28.00000

     total cpu time spent up to now is     1440.9 secs

     per-process dynamical memory:   152.5 Mb

     Self-consistent Calculation

     iteration #  1     ecut=    50.00 Ry     beta=0.70
     Davidson diagonalization with overlap
     ethr =  1.00E-06,  avg # of iterations =  5.1

     total cpu time spent up to now is     1556.0 secs

     total energy              =    -318.40276633 Ry
     Harris-Foulkes estimate   =    -320.92621246 Ry
     estimated scf accuracy    <       0.05443385 Ry

     iteration #  2     ecut=    50.00 Ry     beta=0.70
     Davidson diagonalization with overlap
     ethr =  1.94E-04,  avg # of iterations =  3.1

     total cpu time spent up to now is     1654.6 secs

     total energy              =    -318.48390550 Ry
     Harris-Foulkes estimate   =    -318.52279290 Ry
     estimated scf accuracy    <       0.07887491 Ry

     iteration #  3     ecut=    50.00 Ry     beta=0.70
     Davidson diagonalization with overlap
     ethr =  1.94E-04,  avg # of iterations =  2.0

     total cpu time spent up to now is     1723.7 secs

     total energy              =    -318.48708088 Ry
     Harris-Foulkes estimate   =    -318.49104196 Ry
     estimated scf accuracy    <       0.01125944 Ry

     iteration #  4     ecut=    50.00 Ry     beta=0.70
     Davidson diagonalization with overlap
     ethr =  4.02E-05,  avg # of iterations =  1.1

     total cpu time spent up to now is     1780.4 secs

     total energy              =    -318.48582787 Ry
     Harris-Foulkes estimate   =    -318.48760803 Ry
     estimated scf accuracy    <       0.00390769 Ry

     iteration #  5     ecut=    50.00 Ry     beta=0.70
     Davidson diagonalization with overlap
     ethr =  1.40E-05,  avg # of iterations =  1.9

     total cpu time spent up to now is     1843.3 secs

     total energy              =    -318.48577434 Ry
     Harris-Foulkes estimate   =    -318.48617377 Ry
     estimated scf accuracy    <       0.00071385 Ry

     iteration #  6     ecut=    50.00 Ry     beta=0.70
     Davidson diagonalization with overlap
     ethr =  2.55E-06,  avg # of iterations =  3.1

     total cpu time spent up to now is     1933.8 secs

     total energy              =    -318.48597209 Ry
     Harris-Foulkes estimate   =    -318.48599608 Ry
     estimated scf accuracy    <       0.00003188 Ry

     iteration #  7     ecut=    50.00 Ry     beta=0.70
     Davidson diagonalization with overlap
     ethr =  1.14E-07,  avg # of iterations =  2.1

     total cpu time spent up to now is     2009.5 secs

     total energy              =    -318.48598271 Ry
     Harris-Foulkes estimate   =    -318.48598496 Ry
     estimated scf accuracy    <       0.00000574 Ry

     iteration #  8     ecut=    50.00 Ry     beta=0.70
     Davidson diagonalization with overlap
     ethr =  2.05E-08,  avg # of iterations =  2.0

     total cpu time spent up to now is     2074.0 secs

     total energy              =    -318.48598321 Ry
     Harris-Foulkes estimate   =    -318.48598324 Ry
     estimated scf accuracy    <       0.00000081 Ry

     iteration #  9     ecut=    50.00 Ry     beta=0.70
     Davidson diagonalization with overlap
     ethr =  2.89E-09,  avg # of iterations =  3.0

     total cpu time spent up to now is     2166.2 secs

     total energy              =    -318.48598453 Ry
     Harris-Foulkes estimate   =    -318.48598416 Ry
     estimated scf accuracy    <       0.00000185 Ry

     iteration # 10     ecut=    50.00 Ry     beta=0.70
     Davidson diagonalization with overlap
     ethr =  2.89E-09,  avg # of iterations =  1.0

     total cpu time spent up to now is     2227.7 secs

     total energy              =    -318.48598278 Ry
     Harris-Foulkes estimate   =    -318.48598455 Ry
     estimated scf accuracy    <       0.00000255 Ry

     iteration # 11     ecut=    50.00 Ry     beta=0.70
     Davidson diagonalization with overlap
     ethr =  2.89E-09,  avg # of iterations =  3.0

     total cpu time spent up to now is     2306.4 secs

     total energy              =    -318.48598332 Ry
     Harris-Foulkes estimate   =    -318.48598332 Ry
     estimated scf accuracy    <          6.7E-09 Ry

     iteration # 12     ecut=    50.00 Ry     beta=0.70
     Davidson diagonalization with overlap
     ethr =  2.41E-11,  avg # of iterations =  3.0

     total cpu time spent up to now is     2375.3 secs

     total energy              =    -318.48598332 Ry
     Harris-Foulkes estimate   =    -318.48598332 Ry
     estimated scf accuracy    <          4.3E-09 Ry

     iteration # 13     ecut=    50.00 Ry     beta=0.70
     Davidson diagonalization with overlap
     ethr =  1.54E-11,  avg # of iterations =  2.0

     total cpu time spent up to now is     2450.7 secs

     total energy              =    -318.48598332 Ry
     Harris-Foulkes estimate   =    -318.48598332 Ry
     estimated scf accuracy    <          2.8E-09 Ry

     iteration # 14     ecut=    50.00 Ry     beta=0.70
     Davidson diagonalization with overlap
     ethr =  9.93E-12,  avg # of iterations =  2.0

     total cpu time spent up to now is     2522.3 secs

     total energy              =    -318.48598332 Ry
     Harris-Foulkes estimate   =    -318.48598332 Ry
     estimated scf accuracy    <          2.9E-10 Ry

     iteration # 15     ecut=    50.00 Ry     beta=0.70
     Davidson diagonalization with overlap
     ethr =  1.04E-12,  avg # of iterations =  2.7

     total cpu time spent up to now is     2592.7 secs

     End of self-consistent calculation

     Number of k-points >= 100: set verbosity='high' to print the bands.

     the Fermi energy is    10.2864 ev

!    total energy              =    -318.48598332 Ry
     Harris-Foulkes estimate   =    -318.48598332 Ry
     estimated scf accuracy    <          7.1E-13 Ry

     The total energy is the sum of the following terms:

     one-electron contribution =    -114.37045839 Ry
     hartree contribution      =      77.17911114 Ry
     xc contribution           =     -85.99291592 Ry
     ewald contribution        =    -195.30189852 Ry
     smearing contrib. (-TS)   =       0.00017836 Ry

     convergence has been achieved in  15 iterations

     Forces acting on atoms (cartesian axes, Ry/au):

     atom    1 type  1   force =     0.00000000    0.00000000    0.00000000
     atom    2 type  1   force =     0.00000000    0.00000000   -0.00000000

     Total force =     0.000000     Total SCF correction =     0.000000


     Computing stress (Cartesian axis) and pressure

          total   stress  (Ry/bohr**3)                   (kbar)     P=  -13.63
  -0.00009223   0.00000000  -0.00000000        -13.57      0.00     -0.00
  -0.00000000  -0.00009223   0.00000000         -0.00    -13.57      0.00
   0.00000000   0.00000000  -0.00009354          0.00      0.00    -13.76


     number of scf cycles    =   3
     number of bfgs steps    =   2

     enthalpy old            =    -318.4846265870 Ry
     enthalpy new            =    -318.4859833200 Ry

     CASE: enthalpy_new < enthalpy_old

     new trust radius        =       0.0328680034 bohr
     new conv_thr            =            1.0E-10 Ry

     new unit-cell volume =    368.17481 a.u.^3 (    54.55788 Ang^3 )
     density =      7.22618 g/cm^3

CELL_PARAMETERS (alat= 11.23746432)
   0.987147094  -0.000000000   0.000000000
  -0.000000000   0.987147094   0.000000000
   0.493573547   0.493573547   0.266247388

ATOMIC_POSITIONS (crystal)
Sn       0.625000000   0.875000000   0.750000000
Sn       0.375000000   0.125000000   0.250000000



     Writing output data file sn.beta.relax.save
     NEW-OLD atomic charge density approx. for the potential
     extrapolated charge   27.33332, renormalised to   28.00000

     total cpu time spent up to now is     2603.2 secs

     per-process dynamical memory:   152.5 Mb

     Self-consistent Calculation

     iteration #  1     ecut=    50.00 Ry     beta=0.70
     Davidson diagonalization with overlap
     ethr =  1.00E-06,  avg # of iterations =  5.0

     total cpu time spent up to now is     2719.2 secs

     total energy              =    -318.40581188 Ry
     Harris-Foulkes estimate   =    -320.85581829 Ry
     estimated scf accuracy    <       0.05272313 Ry

     iteration #  2     ecut=    50.00 Ry     beta=0.70
     Davidson diagonalization with overlap
     ethr =  1.88E-04,  avg # of iterations =  3.1

     total cpu time spent up to now is     2821.4 secs

     total energy              =    -318.48439304 Ry
     Harris-Foulkes estimate   =    -318.52199430 Ry
     estimated scf accuracy    <       0.07625194 Ry

     iteration #  3     ecut=    50.00 Ry     beta=0.70
     Davidson diagonalization with overlap
     ethr =  1.88E-04,  avg # of iterations =  2.0

     total cpu time spent up to now is     2895.0 secs

     total energy              =    -318.48743449 Ry
     Harris-Foulkes estimate   =    -318.49128775 Ry
     estimated scf accuracy    <       0.01088730 Ry

     iteration #  4     ecut=    50.00 Ry     beta=0.70
     Davidson diagonalization with overlap
     ethr =  3.89E-05,  avg # of iterations =  1.1

     total cpu time spent up to now is     2955.7 secs

     total energy              =    -318.48623727 Ry
     Harris-Foulkes estimate   =    -318.48794644 Ry
     estimated scf accuracy    <       0.00374699 Ry

     iteration #  5     ecut=    50.00 Ry     beta=0.70
     Davidson diagonalization with overlap
     ethr =  1.34E-05,  avg # of iterations =  1.9

     total cpu time spent up to now is     3019.0 secs

     total energy              =    -318.48616743 Ry
     Harris-Foulkes estimate   =    -318.48657279 Ry
     estimated scf accuracy    <       0.00067835 Ry

     iteration #  6     ecut=    50.00 Ry     beta=0.70
     Davidson diagonalization with overlap
     ethr =  2.42E-06,  avg # of iterations =  3.1

     total cpu time spent up to now is     3104.4 secs

     total energy              =    -318.48638246 Ry
     Harris-Foulkes estimate   =    -318.48639390 Ry
     estimated scf accuracy    <       0.00001568 Ry

     iteration #  7     ecut=    50.00 Ry     beta=0.70
     Davidson diagonalization with overlap
     ethr =  5.60E-08,  avg # of iterations =  2.8

     total cpu time spent up to now is     3186.3 secs

     total energy              =    -318.48638759 Ry
     Harris-Foulkes estimate   =    -318.48639077 Ry
     estimated scf accuracy    <       0.00000662 Ry

     iteration #  8     ecut=    50.00 Ry     beta=0.70
     Davidson diagonalization with overlap
     ethr =  2.36E-08,  avg # of iterations =  2.0

     total cpu time spent up to now is     3252.9 secs

     total energy              =    -318.48638893 Ry
     Harris-Foulkes estimate   =    -318.48638848 Ry
     estimated scf accuracy    <       0.00000054 Ry

     iteration #  9     ecut=    50.00 Ry     beta=0.70
     Davidson diagonalization with overlap
     ethr =  1.94E-09,  avg # of iterations =  3.0

     total cpu time spent up to now is     3345.7 secs

     total energy              =    -318.48638953 Ry
     Harris-Foulkes estimate   =    -318.48638998 Ry
     estimated scf accuracy    <       0.00000288 Ry

     iteration # 10     ecut=    50.00 Ry     beta=0.70
     Davidson diagonalization with overlap
     ethr =  1.94E-09,  avg # of iterations =  1.0

     total cpu time spent up to now is     3406.1 secs

     total energy              =    -318.48638813 Ry
     Harris-Foulkes estimate   =    -318.48638955 Ry
     estimated scf accuracy    <       0.00000200 Ry

     iteration # 11     ecut=    50.00 Ry     beta=0.70
     Davidson diagonalization with overlap
     ethr =  1.94E-09,  avg # of iterations =  3.0

     total cpu time spent up to now is     3498.8 secs

     total energy              =    -318.48638863 Ry
     Harris-Foulkes estimate   =    -318.48638863 Ry
     estimated scf accuracy    <          7.6E-09 Ry

     iteration # 12     ecut=    50.00 Ry     beta=0.70
     Davidson diagonalization with overlap
     ethr =  2.72E-11,  avg # of iterations =  2.0

     total cpu time spent up to now is     3562.6 secs

     total energy              =    -318.48638863 Ry
     Harris-Foulkes estimate   =    -318.48638863 Ry
     estimated scf accuracy    <          2.5E-09 Ry

     iteration # 13     ecut=    50.00 Ry     beta=0.70
     Davidson diagonalization with overlap
     ethr =  8.83E-12,  avg # of iterations =  2.0

     total cpu time spent up to now is     3635.9 secs

     total energy              =    -318.48638863 Ry
     Harris-Foulkes estimate   =    -318.48638863 Ry
     estimated scf accuracy    <          2.6E-10 Ry

     iteration # 14     ecut=    50.00 Ry     beta=0.70
     Davidson diagonalization with overlap
     ethr =  9.25E-13,  avg # of iterations =  1.4

     total cpu time spent up to now is     3695.7 secs

     End of self-consistent calculation

     Number of k-points >= 100: set verbosity='high' to print the bands.

     the Fermi energy is    10.6633 ev

!    total energy              =    -318.48638863 Ry
     Harris-Foulkes estimate   =    -318.48638863 Ry
     estimated scf accuracy    <          4.3E-11 Ry

     The total energy is the sum of the following terms:

     one-electron contribution =    -111.74987088 Ry
     hartree contribution      =      76.24136995 Ry
     xc contribution           =     -86.02100733 Ry
     ewald contribution        =    -196.95705856 Ry
     smearing contrib. (-TS)   =       0.00017818 Ry

     convergence has been achieved in  14 iterations

     Forces acting on atoms (cartesian axes, Ry/au):

     atom    1 type  1   force =    -0.00000000   -0.00000000    0.00000000
     atom    2 type  1   force =     0.00000000    0.00000000   -0.00000000

     Total force =     0.000000     Total SCF correction =     0.000000


     Computing stress (Cartesian axis) and pressure

          total   stress  (Ry/bohr**3)                   (kbar)     P=    1.29
   0.00000926   0.00000000  -0.00000000          1.36      0.00     -0.00
  -0.00000000   0.00000926  -0.00000000         -0.00      1.36     -0.00
  -0.00000000  -0.00000000   0.00000778         -0.00     -0.00      1.14


     number of scf cycles    =   4
     number of bfgs steps    =   3

     enthalpy old            =    -318.4859833200 Ry
     enthalpy new            =    -318.4863886349 Ry

     CASE: enthalpy_new < enthalpy_old

     new trust radius        =       0.0028047175 bohr
     new conv_thr            =            1.0E-10 Ry

     new unit-cell volume =    368.97195 a.u.^3 (    54.67600 Ang^3 )
     density =      7.21057 g/cm^3

CELL_PARAMETERS (alat= 11.23746432)
   0.987868557  -0.000000000   0.000000000
   0.000000000   0.987868557   0.000000000
   0.493934278   0.493934278   0.266434248

ATOMIC_POSITIONS (crystal)
Sn       0.625000000   0.875000000   0.750000000
Sn       0.375000000   0.125000000   0.250000000



     Writing output data file sn.beta.relax.save
     NEW-OLD atomic charge density approx. for the potential
     extrapolated charge   28.05617, renormalised to   28.00000

     total cpu time spent up to now is     3706.2 secs

     per-process dynamical memory:   152.5 Mb

     Self-consistent Calculation

     iteration #  1     ecut=    50.00 Ry     beta=0.70
     Davidson diagonalization with overlap
     ethr =  1.00E-06,  avg # of iterations =  3.0

     total cpu time spent up to now is     3800.9 secs

     total energy              =    -318.48580079 Ry
     Harris-Foulkes estimate   =    -318.28632932 Ry
     estimated scf accuracy    <       0.00037887 Ry

     iteration #  2     ecut=    50.00 Ry     beta=0.70
     Davidson diagonalization with overlap
     ethr =  1.35E-06,  avg # of iterations =  3.0

     total cpu time spent up to now is     3901.5 secs

     total energy              =    -318.48638346 Ry
     Harris-Foulkes estimate   =    -318.48665906 Ry
     estimated scf accuracy    <       0.00056151 Ry

     iteration #  3     ecut=    50.00 Ry     beta=0.70
     Davidson diagonalization with overlap
     ethr =  1.35E-06,  avg # of iterations =  2.0

     total cpu time spent up to now is     3974.9 secs

     total energy              =    -318.48639910 Ry
     Harris-Foulkes estimate   =    -318.48643178 Ry
     estimated scf accuracy    <       0.00008614 Ry

     iteration #  4     ecut=    50.00 Ry     beta=0.70
     Davidson diagonalization with overlap
     ethr =  3.08E-07,  avg # of iterations =  1.1

     total cpu time spent up to now is     4031.6 secs

     total energy              =    -318.48639253 Ry
     Harris-Foulkes estimate   =    -318.48640351 Ry
     estimated scf accuracy    <       0.00002680 Ry

     iteration #  5     ecut=    50.00 Ry     beta=0.70
     Davidson diagonalization with overlap
     ethr =  9.57E-08,  avg # of iterations =  1.4

     total cpu time spent up to now is     4089.6 secs

     total energy              =    -318.48639057 Ry
     Harris-Foulkes estimate   =    -318.48639453 Ry
     estimated scf accuracy    <       0.00000636 Ry

     iteration #  6     ecut=    50.00 Ry     beta=0.70
     Davidson diagonalization with overlap
     ethr =  2.27E-08,  avg # of iterations =  3.0

     total cpu time spent up to now is     4179.2 secs

     total energy              =    -318.48639249 Ry
     Harris-Foulkes estimate   =    -318.48639255 Ry
     estimated scf accuracy    <       0.00000010 Ry

     iteration #  7     ecut=    50.00 Ry     beta=0.70
     Davidson diagonalization with overlap
     ethr =  3.60E-10,  avg # of iterations =  3.0

     total cpu time spent up to now is     4275.5 secs

     total energy              =    -318.48639264 Ry
     Harris-Foulkes estimate   =    -318.48639261 Ry
     estimated scf accuracy    <       0.00000018 Ry

     iteration #  8     ecut=    50.00 Ry     beta=0.70
     Davidson diagonalization with overlap
     ethr =  3.60E-10,  avg # of iterations =  1.0

     total cpu time spent up to now is     4336.1 secs

     total energy              =    -318.48639250 Ry
     Harris-Foulkes estimate   =    -318.48639264 Ry
     estimated scf accuracy    <       0.00000024 Ry

     iteration #  9     ecut=    50.00 Ry     beta=0.70
     Davidson diagonalization with overlap
     ethr =  3.60E-10,  avg # of iterations =  2.0

     total cpu time spent up to now is     4412.2 secs

     total energy              =    -318.48639254 Ry
     Harris-Foulkes estimate   =    -318.48639254 Ry
     estimated scf accuracy    <       0.00000002 Ry

     iteration # 10     ecut=    50.00 Ry     beta=0.70
     Davidson diagonalization with overlap
     ethr =  7.89E-11,  avg # of iterations =  3.0

     total cpu time spent up to now is     4492.9 secs

     total energy              =    -318.48639252 Ry
     Harris-Foulkes estimate   =    -318.48639255 Ry
     estimated scf accuracy    <       0.00000004 Ry

     iteration # 11     ecut=    50.00 Ry     beta=0.70
     Davidson diagonalization with overlap
     ethr =  7.89E-11,  avg # of iterations =  2.1

     total cpu time spent up to now is     4572.6 secs

     End of self-consistent calculation

     Number of k-points >= 100: set verbosity='high' to print the bands.

     the Fermi energy is    10.6307 ev

!    total energy              =    -318.48639253 Ry
     Harris-Foulkes estimate   =    -318.48639253 Ry
     estimated scf accuracy    <          8.5E-11 Ry

     The total energy is the sum of the following terms:

     one-electron contribution =    -111.97439205 Ry
     hartree contribution      =      76.32148970 Ry
     xc contribution           =     -86.01857068 Ry
     ewald contribution        =    -196.81509751 Ry
     smearing contrib. (-TS)   =       0.00017802 Ry

     convergence has been achieved in  11 iterations

     Forces acting on atoms (cartesian axes, Ry/au):

     atom    1 type  1   force =     0.00000000    0.00000000    0.00000000
     atom    2 type  1   force =     0.00000000    0.00000000   -0.00000000

     Total force =     0.000000     Total SCF correction =     0.000000


     Computing stress (Cartesian axis) and pressure

          total   stress  (Ry/bohr**3)                   (kbar)     P=   -0.06
  -0.00000000  -0.00000000   0.00000000         -0.00     -0.00      0.00
  -0.00000000  -0.00000000   0.00000000         -0.00     -0.00      0.00
   0.00000000   0.00000000  -0.00000127          0.00      0.00     -0.19


     bfgs converged in   5 scf cycles and   4 bfgs steps
     (criteria: energy <  1.0E-04 Ry, force <  1.0E-03Ry/Bohr, cell <  5.0E-01kbar)

     End of BFGS Geometry Optimization

     Final enthalpy =    -318.4863925299 Ry
Begin final coordinates
     new unit-cell volume =    368.97195 a.u.^3 (    54.67600 Ang^3 )
     density =      7.21057 g/cm^3

CELL_PARAMETERS (alat= 11.23746432)
   0.987868557  -0.000000000   0.000000000
   0.000000000   0.987868557   0.000000000
   0.493934278   0.493934278   0.266434248

ATOMIC_POSITIONS (crystal)
Sn       0.625000000   0.875000000   0.750000000
Sn       0.375000000   0.125000000   0.250000000
End final coordinates



     A final scf calculation at the relaxed structure.
     The G-vectors are recalculated for the final unit cell
     Results may differ from those at the preceding step.

     Parallelization info
     --------------------
     sticks:   dense  smooth     PW     G-vecs:    dense   smooth      PW
     Min        1225     484    199                17403     4402    1165
     Max        1227     486    200                17404     4403    1166
     Sum        4905    1941    797                69613    17609    4661



     bravais-lattice index     =            0
     lattice parameter (alat)  =      11.2375  a.u.
     unit-cell volume          =     368.9719 (a.u.)^3
     number of atoms/cell      =            2
     number of atomic types    =            1
     number of electrons       =        28.00
     number of Kohn-Sham states=           18
     kinetic-energy cutoff     =      50.0000  Ry
     charge density cutoff     =     500.0000  Ry
     convergence threshold     =      1.0E-10
     mixing beta               =       0.7000
     number of iterations used =            8  plain     mixing
     Exchange-correlation      =  SLA  PW   PBX  PBC ( 1  4  3  4 0 0)

     celldm(1)=  11.237464  celldm(2)=   0.000000  celldm(3)=   0.000000
     celldm(4)=   0.000000  celldm(5)=   0.000000  celldm(6)=   0.000000

     crystal axes: (cart. coord. in units of alat)
               a(1) = (   0.987869  -0.000000   0.000000 )  
               a(2) = (   0.000000   0.987869   0.000000 )  
               a(3) = (   0.493934   0.493934   0.266434 )  

     reciprocal axes: (cart. coord. in units 2 pi/alat)
               b(1) = (  1.012280  0.000000 -1.876636 )  
               b(2) = (  0.000000  1.012280 -1.876636 )  
               b(3) = ( -0.000000 -0.000000  3.753271 )  


     PseudoPot. # 1 for Sn read from file:
     /home/s1333534/quantum_espresso/qe-6.1/pseudo/sn_pbe_v1.4.uspp.F.UPF
     MD5 check sum: 469debedee59599fedebd795477fea03
     Pseudo is Ultrasoft + core correction, Zval = 14.0
     Generated by new atomic code, or converted to UPF format
     Using radial grid of  891 points,  6 beta functions with: 
                l(1) =   0
                l(2) =   0
                l(3) =   1
                l(4) =   1
                l(5) =   2
                l(6) =   2
     Q(r) pseudized with  8 coefficients,  rinner =    1.350   1.350   1.350
                                                       1.350   1.350

     atomic species   valence    mass     pseudopotential
        Sn            14.00   118.71000     Sn( 1.00)

     16 Sym. Ops., with inversion, found (12 have fractional translation)



   Cartesian axes

     site n.     atom                  positions (alat units)
         1           Sn  tau(   1) = (   0.9878686   1.2348357   0.1998257  )
         2           Sn  tau(   2) = (   0.4939343   0.2469671   0.0666086  )

     number of k points=   687  Marzari-Vanderbilt smearing, width (Ry)=  0.0200

     Number of k-points >= 100: set verbosity='high' to print them.

     Dense  grid:    69613 G-vectors     FFT dimensions: (  80,  80,  60)

     Smooth grid:    17609 G-vectors     FFT dimensions: (  50,  50,  40)

     Estimated max dynamical RAM per process >     119.07MB

     Estimated total allocated dynamical RAM >     476.29MB

     Initial potential from superposition of free atoms

     starting charge   25.99991, renormalised to   28.00000
     Starting wfc are   18 randomized atomic wfcs

     Writing output data file sn.beta.relax.save

     total cpu time spent up to now is     4599.3 secs

     per-process dynamical memory:   144.7 Mb

     Self-consistent Calculation

     iteration #  1     ecut=    50.00 Ry     beta=0.70
     Davidson diagonalization with overlap
     c_bands:  1 eigenvalues not converged
     c_bands:  1 eigenvalues not converged
     c_bands:  1 eigenvalues not converged
     c_bands:  1 eigenvalues not converged
     c_bands:  1 eigenvalues not converged
     c_bands:  1 eigenvalues not converged
     c_bands:  1 eigenvalues not converged
     c_bands:  1 eigenvalues not converged
     c_bands:  1 eigenvalues not converged
     c_bands:  1 eigenvalues not converged
     c_bands:  1 eigenvalues not converged
     c_bands:  1 eigenvalues not converged
     ethr =  1.00E-06,  avg # of iterations = 11.1

     total cpu time spent up to now is     4730.8 secs

     total energy              =    -317.55548080 Ry
     Harris-Foulkes estimate   =    -319.50134662 Ry
     estimated scf accuracy    <       2.38305124 Ry

     iteration #  2     ecut=    50.00 Ry     beta=0.70
     Davidson diagonalization with overlap
     ethr =  8.51E-03,  avg # of iterations =  2.7

     total cpu time spent up to now is     4788.0 secs

     total energy              =    -318.39994411 Ry
     Harris-Foulkes estimate   =    -318.67725384 Ry
     estimated scf accuracy    <       0.40327589 Ry

     iteration #  3     ecut=    50.00 Ry     beta=0.70
     Davidson diagonalization with overlap
     ethr =  1.44E-03,  avg # of iterations =  2.0

     total cpu time spent up to now is     4842.2 secs

     total energy              =    -318.48239187 Ry
     Harris-Foulkes estimate   =    -318.48352657 Ry
     estimated scf accuracy    <       0.00209440 Ry

     iteration #  4     ecut=    50.00 Ry     beta=0.70
     Davidson diagonalization with overlap
     ethr =  7.48E-06,  avg # of iterations =  3.5

     total cpu time spent up to now is     4903.5 secs

     total energy              =    -318.48288181 Ry
     Harris-Foulkes estimate   =    -318.48295691 Ry
     estimated scf accuracy    <       0.00011065 Ry

     iteration #  5     ecut=    50.00 Ry     beta=0.70
     Davidson diagonalization with overlap
     ethr =  3.95E-07,  avg # of iterations =  2.0

     total cpu time spent up to now is     4960.0 secs

     total energy              =    -318.48290947 Ry
     Harris-Foulkes estimate   =    -318.48290938 Ry
     estimated scf accuracy    <       0.00000013 Ry

     iteration #  6     ecut=    50.00 Ry     beta=0.70
     Davidson diagonalization with overlap
     ethr =  4.69E-10,  avg # of iterations =  3.9

     total cpu time spent up to now is     5031.7 secs

     total energy              =    -318.48290964 Ry
     Harris-Foulkes estimate   =    -318.48290964 Ry
     estimated scf accuracy    <          8.0E-09 Ry

     iteration #  7     ecut=    50.00 Ry     beta=0.70
     Davidson diagonalization with overlap
     ethr =  2.87E-11,  avg # of iterations =  2.2

     total cpu time spent up to now is     5087.3 secs

     End of self-consistent calculation

     Number of k-points >= 100: set verbosity='high' to print the bands.

     the Fermi energy is    10.6306 ev

!    total energy              =    -318.48290964 Ry
     Harris-Foulkes estimate   =    -318.48290964 Ry
     estimated scf accuracy    <          4.2E-11 Ry

     The total energy is the sum of the following terms:

     one-electron contribution =    -111.97101896 Ry
     hartree contribution      =      76.32215467 Ry
     xc contribution           =     -86.01912584 Ry
     ewald contribution        =    -196.81509751 Ry
     smearing contrib. (-TS)   =       0.00017799 Ry

     convergence has been achieved in   7 iterations

     Forces acting on atoms (cartesian axes, Ry/au):

     atom    1 type  1   force =    -0.00000000   -0.00000000    0.00000000
     atom    2 type  1   force =     0.00000000    0.00000000   -0.00000000

     Total force =     0.000000     Total SCF correction =     0.000000


     Computing stress (Cartesian axis) and pressure

          total   stress  (Ry/bohr**3)                   (kbar)     P=   -3.83
  -0.00002558  -0.00000000   0.00000000         -3.76     -0.00      0.00
  -0.00000000  -0.00002558   0.00000000         -0.00     -3.76      0.00
   0.00000000   0.00000000  -0.00002699          0.00      0.00     -3.97


     Writing output data file sn.beta.relax.save

     init_run     :     41.59s CPU     42.83s WALL (       2 calls)
     electrons    :   4883.90s CPU   4993.01s WALL (       6 calls)
     update_pot   :      5.25s CPU      5.31s WALL (       4 calls)
     forces       :     10.33s CPU     10.43s WALL (       6 calls)
     stress       :     37.27s CPU     37.51s WALL (       6 calls)

     Called by init_run:
     wfcinit      :     38.91s CPU     40.05s WALL (       2 calls)
     potinit      :      0.58s CPU      0.61s WALL (       2 calls)

     Called by electrons:
     c_bands      :   4024.29s CPU   4116.14s WALL (      64 calls)
     sum_band     :    843.82s CPU    860.08s WALL (      64 calls)
     v_of_rho     :      9.60s CPU      9.86s WALL (      70 calls)
     newd         :      5.50s CPU      6.06s WALL (      70 calls)
     mix_rho      :      1.06s CPU      1.12s WALL (      64 calls)

     Called by c_bands:
     init_us_2    :     32.28s CPU     32.82s WALL (   97554 calls)
     cegterg      :   3962.98s CPU   4053.20s WALL (   43968 calls)

     Called by sum_band:
     sum_band:bec :      0.54s CPU      0.63s WALL (   43968 calls)
     addusdens    :      6.48s CPU      7.43s WALL (      64 calls)

     Called by *egterg:
     h_psi        :   3719.75s CPU   3806.27s WALL (  158874 calls)
     s_psi        :     20.03s CPU     20.42s WALL (  158874 calls)
     g_psi        :      7.23s CPU      7.28s WALL (  113532 calls)
     cdiaghg      :     98.35s CPU     99.65s WALL (  154752 calls)

     Called by h_psi:
     h_psi:pot    :   3706.73s CPU   3793.10s WALL (  158874 calls)
     h_psi:calbec :     45.38s CPU     46.02s WALL (  158874 calls)
     vloc_psi     :   3634.26s CPU   3719.09s WALL (  158874 calls)
     add_vuspsi   :     26.95s CPU     27.36s WALL (  158874 calls)

     General routines
     calbec       :     65.35s CPU     66.12s WALL (  223452 calls)
     fft          :      8.20s CPU      8.71s WALL (    1250 calls)
     ffts         :      0.11s CPU      0.11s WALL (     134 calls)
     fftw         :   2586.54s CPU   2648.80s WALL ( 5453534 calls)
     interpolate  :      1.16s CPU      1.22s WALL (     134 calls)
     davcio       :      0.04s CPU      0.10s WALL (    1374 calls)

     Parallel routines
     fft_scatter  :    529.08s CPU    544.69s WALL ( 5454918 calls)

     PWSCF        :     1h23m CPU        1h24m WALL


   This run was terminated on:  20:39:40  21Nov2017            

=------------------------------------------------------------------------------=
   JOB DONE.
=------------------------------------------------------------------------------=
