
     Program PWSCF v.6.1 (svn rev. 13369) starts on 11Nov2017 at 15:32:22 

     This program is part of the open-source Quantum ESPRESSO suite
     for quantum simulation of materials; please cite
         "P. Giannozzi et al., J. Phys.:Condens. Matter 21 395502 (2009);
          URL http://www.quantum-espresso.org", 
     in publications or presentations arising from this work. More details at
     http://www.quantum-espresso.org/quote

     Parallel version (MPI), running on     4 processors
     R & G space division:  proc/nbgrp/npool/nimage =       4
     Waiting for input...
     Reading input from standard input
     Message from routine read_cards :
     DEPRECATED: no units specified in ATOMIC_POSITIONS card
     Message from routine read_cards :
     ATOMIC_POSITIONS: units set to alat

     Current dimensions of program PWSCF are:
     Max number of different atomic species (ntypx) = 10
     Max number of k-points (npk) =  40000
     Max angular momentum in pseudopotentials (lmaxx) =  3

     Subspace diagonalization in iterative solution of the eigenvalue problem:
     a serial algorithm will be used


     Parallelization info
     --------------------
     sticks:   dense  smooth     PW     G-vecs:    dense   smooth      PW
     Min         526     264     78                16105     5664     958
     Max         527     265     79                16110     5665     963
     Sum        2107    1057    313                64431    22659    3839



     bravais-lattice index     =            2
     lattice parameter (alat)  =      12.4000  a.u.
     unit-cell volume          =     476.6560 (a.u.)^3
     number of atoms/cell      =            2
     number of atomic types    =            1
     number of electrons       =        28.00
     number of Kohn-Sham states=           14
     kinetic-energy cutoff     =      50.0000  Ry
     charge density cutoff     =     400.0000  Ry
     convergence threshold     =      1.0E-08
     mixing beta               =       0.7000
     number of iterations used =            8  plain     mixing
     Exchange-correlation      =  SLA  PW   PBX  PBC ( 1  4  3  4 0 0)

     celldm(1)=  12.400000  celldm(2)=   0.000000  celldm(3)=   0.000000
     celldm(4)=   0.000000  celldm(5)=   0.000000  celldm(6)=   0.000000

     crystal axes: (cart. coord. in units of alat)
               a(1) = (  -0.500000   0.000000   0.500000 )  
               a(2) = (   0.000000   0.500000   0.500000 )  
               a(3) = (  -0.500000   0.500000   0.000000 )  

     reciprocal axes: (cart. coord. in units 2 pi/alat)
               b(1) = ( -1.000000 -1.000000  1.000000 )  
               b(2) = (  1.000000  1.000000  1.000000 )  
               b(3) = ( -1.000000  1.000000 -1.000000 )  


     PseudoPot. # 1 for Sn read from file:
     /home/s1333534/quantum_espresso/qe-6.1/pseudo/sn_pbe_v1.4.uspp.F.UPF
     MD5 check sum: 469debedee59599fedebd795477fea03
     Pseudo is Ultrasoft + core correction, Zval = 14.0
     Generated by new atomic code, or converted to UPF format
     Using radial grid of  891 points,  6 beta functions with: 
                l(1) =   0
                l(2) =   0
                l(3) =   1
                l(4) =   1
                l(5) =   2
                l(6) =   2
     Q(r) pseudized with  8 coefficients,  rinner =    1.350   1.350   1.350
                                                       1.350   1.350

     atomic species   valence    mass     pseudopotential
        Sn            14.00   118.71000     Sn( 1.00)

     48 Sym. Ops., with inversion, found (24 have fractional translation)



   Cartesian axes

     site n.     atom                  positions (alat units)
         1           Sn  tau(   1) = (   0.0000000   0.0000000   0.0000000  )
         2           Sn  tau(   2) = (   0.2500000   0.2500000   0.2500000  )

     number of k points=    60
                       cart. coord. in units 2pi/alat
        k(    1) = (  -0.0625000   0.0625000   0.0625000), wk =   0.0078125
        k(    2) = (  -0.1875000   0.1875000  -0.0625000), wk =   0.0234375
        k(    3) = (  -0.3125000   0.3125000  -0.1875000), wk =   0.0234375
        k(    4) = (  -0.4375000   0.4375000  -0.3125000), wk =   0.0234375
        k(    5) = (   0.4375000  -0.4375000   0.5625000), wk =   0.0234375
        k(    6) = (   0.3125000  -0.3125000   0.4375000), wk =   0.0234375
        k(    7) = (   0.1875000  -0.1875000   0.3125000), wk =   0.0234375
        k(    8) = (   0.0625000  -0.0625000   0.1875000), wk =   0.0234375
        k(    9) = (  -0.0625000   0.3125000   0.0625000), wk =   0.0234375
        k(   10) = (  -0.1875000   0.4375000  -0.0625000), wk =   0.0468750
        k(   11) = (  -0.3125000   0.5625000  -0.1875000), wk =   0.0468750
        k(   12) = (   0.5625000  -0.3125000   0.6875000), wk =   0.0468750
        k(   13) = (   0.4375000  -0.1875000   0.5625000), wk =   0.0468750
        k(   14) = (   0.3125000  -0.0625000   0.4375000), wk =   0.0468750
        k(   15) = (   0.1875000   0.0625000   0.3125000), wk =   0.0468750
        k(   16) = (  -0.0625000   0.5625000   0.0625000), wk =   0.0234375
        k(   17) = (  -0.1875000   0.6875000  -0.0625000), wk =   0.0468750
        k(   18) = (   0.6875000  -0.1875000   0.8125000), wk =   0.0468750
        k(   19) = (   0.5625000  -0.0625000   0.6875000), wk =   0.0468750
        k(   20) = (   0.4375000   0.0625000   0.5625000), wk =   0.0468750
        k(   21) = (   0.3125000   0.1875000   0.4375000), wk =   0.0468750
        k(   22) = (  -0.0625000   0.8125000   0.0625000), wk =   0.0234375
        k(   23) = (   0.8125000  -0.0625000   0.9375000), wk =   0.0468750
        k(   24) = (   0.6875000   0.0625000   0.8125000), wk =   0.0468750
        k(   25) = (   0.5625000   0.1875000   0.6875000), wk =   0.0468750
        k(   26) = (   0.4375000   0.3125000   0.5625000), wk =   0.0468750
        k(   27) = (  -0.0625000  -0.9375000   0.0625000), wk =   0.0234375
        k(   28) = (  -0.1875000  -0.8125000  -0.0625000), wk =   0.0468750
        k(   29) = (  -0.3125000  -0.6875000  -0.1875000), wk =   0.0468750
        k(   30) = (  -0.0625000  -0.6875000   0.0625000), wk =   0.0234375
        k(   31) = (  -0.1875000  -0.5625000  -0.0625000), wk =   0.0468750
        k(   32) = (  -0.0625000  -0.4375000   0.0625000), wk =   0.0234375
        k(   33) = (  -0.1875000   0.1875000   0.1875000), wk =   0.0078125
        k(   34) = (  -0.3125000   0.3125000   0.0625000), wk =   0.0234375
        k(   35) = (  -0.4375000   0.4375000  -0.0625000), wk =   0.0234375
        k(   36) = (   0.4375000  -0.4375000   0.8125000), wk =   0.0234375
        k(   37) = (   0.3125000  -0.3125000   0.6875000), wk =   0.0234375
        k(   38) = (   0.1875000  -0.1875000   0.5625000), wk =   0.0234375
        k(   39) = (  -0.1875000   0.4375000   0.1875000), wk =   0.0234375
        k(   40) = (  -0.3125000   0.5625000   0.0625000), wk =   0.0468750
        k(   41) = (   0.5625000  -0.3125000   0.9375000), wk =   0.0468750
        k(   42) = (   0.4375000  -0.1875000   0.8125000), wk =   0.0468750
        k(   43) = (   0.3125000  -0.0625000   0.6875000), wk =   0.0468750
        k(   44) = (  -0.1875000   0.6875000   0.1875000), wk =   0.0234375
        k(   45) = (   0.6875000  -0.1875000   1.0625000), wk =   0.0468750
        k(   46) = (   0.5625000  -0.0625000   0.9375000), wk =   0.0468750
        k(   47) = (   0.4375000   0.0625000   0.8125000), wk =   0.0468750
        k(   48) = (  -0.1875000  -1.0625000   0.1875000), wk =   0.0234375
        k(   49) = (  -0.3125000  -0.9375000   0.0625000), wk =   0.0468750
        k(   50) = (  -0.1875000  -0.8125000   0.1875000), wk =   0.0234375
        k(   51) = (  -0.3125000   0.3125000   0.3125000), wk =   0.0078125
        k(   52) = (  -0.4375000   0.4375000   0.1875000), wk =   0.0234375
        k(   53) = (   0.4375000  -0.4375000   1.0625000), wk =   0.0234375
        k(   54) = (   0.3125000  -0.3125000   0.9375000), wk =   0.0234375
        k(   55) = (  -0.3125000   0.5625000   0.3125000), wk =   0.0234375
        k(   56) = (   0.5625000  -0.3125000   1.1875000), wk =   0.0468750
        k(   57) = (   0.4375000  -0.1875000   1.0625000), wk =   0.0468750
        k(   58) = (  -0.3125000  -1.1875000   0.3125000), wk =   0.0234375
        k(   59) = (  -0.4375000   0.4375000   0.4375000), wk =   0.0078125
        k(   60) = (   0.4375000  -0.4375000   1.3125000), wk =   0.0234375

     Dense  grid:    64431 G-vectors     FFT dimensions: (  60,  60,  60)

     Smooth grid:    22659 G-vectors     FFT dimensions: (  40,  40,  40)

     Estimated max dynamical RAM per process >      21.06MB

     Estimated total allocated dynamical RAM >      84.22MB

     Initial potential from superposition of free atoms

     starting charge   25.99991, renormalised to   28.00000
     Starting wfc are   18 randomized atomic wfcs

     total cpu time spent up to now is        1.3 secs

     per-process dynamical memory:    25.3 Mb

     Self-consistent Calculation

     iteration #  1     ecut=    50.00 Ry     beta=0.70
     Davidson diagonalization with overlap
     ethr =  1.00E-02,  avg # of iterations =  2.8

     total cpu time spent up to now is        3.9 secs

     total energy              =    -317.48873031 Ry
     Harris-Foulkes estimate   =    -319.54029431 Ry
     estimated scf accuracy    <       2.50000509 Ry

     iteration #  2     ecut=    50.00 Ry     beta=0.70
     Davidson diagonalization with overlap
     ethr =  8.93E-03,  avg # of iterations =  3.0

     total cpu time spent up to now is        6.6 secs

     total energy              =    -318.39308252 Ry
     Harris-Foulkes estimate   =    -318.71048583 Ry
     estimated scf accuracy    <       0.47331659 Ry

     iteration #  3     ecut=    50.00 Ry     beta=0.70
     Davidson diagonalization with overlap
     ethr =  1.69E-03,  avg # of iterations =  2.0

     total cpu time spent up to now is        9.1 secs

     total energy              =    -318.48785809 Ry
     Harris-Foulkes estimate   =    -318.48943521 Ry
     estimated scf accuracy    <       0.00288968 Ry

     iteration #  4     ecut=    50.00 Ry     beta=0.70
     Davidson diagonalization with overlap
     ethr =  1.03E-05,  avg # of iterations =  3.0

     total cpu time spent up to now is       11.7 secs

     total energy              =    -318.48875384 Ry
     Harris-Foulkes estimate   =    -318.48887238 Ry
     estimated scf accuracy    <       0.00017609 Ry

     iteration #  5     ecut=    50.00 Ry     beta=0.70
     Davidson diagonalization with overlap
     ethr =  6.29E-07,  avg # of iterations =  3.0

     total cpu time spent up to now is       14.3 secs

     total energy              =    -318.48880739 Ry
     Harris-Foulkes estimate   =    -318.48880804 Ry
     estimated scf accuracy    <       0.00000142 Ry

     iteration #  6     ecut=    50.00 Ry     beta=0.70
     Davidson diagonalization with overlap
     ethr =  5.07E-09,  avg # of iterations =  3.9

     total cpu time spent up to now is       17.1 secs

     total energy              =    -318.48880811 Ry
     Harris-Foulkes estimate   =    -318.48880817 Ry
     estimated scf accuracy    <       0.00000009 Ry

     iteration #  7     ecut=    50.00 Ry     beta=0.70
     Davidson diagonalization with overlap
     ethr =  3.29E-10,  avg # of iterations =  3.1

     total cpu time spent up to now is       19.9 secs

     End of self-consistent calculation

          k =-0.0625 0.0625 0.0625 (  2797 PWs)   bands (ev):

   -14.2054 -14.2054 -14.2013 -14.1445 -14.1445 -13.8756 -13.8756 -13.8671
   -13.8517 -13.8517  -2.9189   6.0564   7.4391   7.4391

          k =-0.1875 0.1875-0.0625 (  2823 PWs)   bands (ev):

   -14.2189 -14.2134 -14.1985 -14.1323 -14.1248 -13.9016 -13.8916 -13.8638
   -13.8469 -13.8321  -2.7256   4.7808   6.7185   7.2955

          k =-0.3125 0.3125-0.1875 (  2850 PWs)   bands (ev):

   -14.2317 -14.2282 -14.1864 -14.1129 -14.1020 -13.9222 -13.9092 -13.8815
   -13.8285 -13.8195  -2.2651   3.1155   6.2115   6.8504

          k =-0.4375 0.4375-0.3125 (  2853 PWs)   bands (ev):

   -14.2380 -14.2373 -14.1747 -14.0985 -14.0905 -13.9301 -13.9194 -13.8985
   -13.8162 -13.8142  -1.6535   1.7422   5.9619   6.4735

          k = 0.4375-0.4375 0.5625 (  2852 PWs)   bands (ev):

   -14.2414 -14.2372 -14.1719 -14.0917 -14.0910 -13.9285 -13.9255 -13.9021
   -13.8156 -13.8111  -1.3797   1.2719   5.9657   6.2907

          k = 0.3125-0.3125 0.4375 (  2848 PWs)   bands (ev):

   -14.2385 -14.2324 -14.1794 -14.1017 -14.0924 -13.9328 -13.9149 -13.8905
   -13.8222 -13.8135  -1.8564   2.1386   6.2060   6.3410

          k = 0.1875-0.1875 0.3125 (  2843 PWs)   bands (ev):

   -14.2284 -14.2228 -14.1925 -14.1194 -14.1071 -13.9226 -13.8981 -13.8748
   -13.8341 -13.8235  -2.4442   3.6610   6.6225   6.6382

          k = 0.0625-0.0625 0.1875 (  2807 PWs)   bands (ev):

   -14.2123 -14.2087 -14.2024 -14.1396 -14.1306 -13.8999 -13.8754 -13.8632
   -13.8519 -13.8391  -2.8215   5.3372   7.0709   7.1123

          k =-0.0625 0.3125 0.0625 (  2829 PWs)   bands (ev):

   -14.2196 -14.2157 -14.2050 -14.1300 -14.1074 -13.9306 -13.8811 -13.8553
   -13.8469 -13.8318  -2.6277   4.4908   6.5795   6.5911

          k =-0.1875 0.4375-0.0625 (  2845 PWs)   bands (ev):

   -14.2343 -14.2287 -14.1912 -14.1120 -14.0813 -13.9588 -13.9002 -13.8664
   -13.8306 -13.8176  -2.2510   3.3229   5.7665   6.3482

          k =-0.3125 0.5625-0.1875 (  2845 PWs)   bands (ev):

   -14.2499 -14.2382 -14.1665 -14.0923 -14.0660 -13.9704 -13.9213 -13.8947
   -13.8153 -13.8015  -1.6620   2.0107   5.2482   6.0306

          k = 0.5625-0.3125 0.6875 (  2850 PWs)   bands (ev):

   -14.2572 -14.2431 -14.1496 -14.0777 -14.0694 -13.9593 -13.9406 -13.9154
   -13.8078 -13.7941  -1.1781   1.2037   4.9801   5.9594

          k = 0.4375-0.1875 0.5625 (  2845 PWs)   bands (ev):

   -14.2529 -14.2432 -14.1528 -14.0903 -14.0680 -13.9583 -13.9262 -13.9167
   -13.8073 -13.7992  -1.4630   1.6562   4.9778   6.1784

          k = 0.3125-0.0625 0.4375 (  2849 PWs)   bands (ev):

   -14.2395 -14.2367 -14.1745 -14.1080 -14.0812 -13.9506 -13.9112 -13.8870
   -13.8204 -13.8110  -2.0774   2.8646   5.3378   6.5882

          k = 0.1875 0.0625 0.3125 (  2830 PWs)   bands (ev):

   -14.2263 -14.2202 -14.1953 -14.1243 -14.1065 -13.9266 -13.8934 -13.8643
   -13.8413 -13.8240  -2.5347   4.0687   6.2337   6.8982

          k =-0.0625 0.5625 0.0625 (  2857 PWs)   bands (ev):

   -14.2364 -14.2334 -14.1966 -14.0954 -14.0472 -14.0008 -13.9136 -13.8535
   -13.8238 -13.8190  -1.9580   2.7732   5.6433   5.7359

          k =-0.1875 0.6875-0.0625 (  2838 PWs)   bands (ev):

   -14.2499 -14.2441 -14.1694 -14.0718 -14.0287 -14.0195 -13.9377 -13.8828
   -13.8080 -13.8013  -1.4206   1.8223   5.0505   5.4615

          k = 0.6875-0.1875 0.8125 (  2850 PWs)   bands (ev):

   -14.2657 -14.2495 -14.1359 -14.0497 -14.0315 -14.0137 -13.9640 -13.9187
   -13.8001 -13.7835  -0.8171   0.9807   4.4457   5.4293

          k = 0.5625-0.0625 0.6875 (  2848 PWs)   bands (ev):

   -14.2686 -14.2506 -14.1262 -14.0557 -14.0351 -13.9948 -13.9728 -13.9291
   -13.7980 -13.7812  -0.8827   1.0643   4.2200   5.6957

          k = 0.4375 0.0625 0.5625 (  2849 PWs)   bands (ev):

   -14.2563 -14.2464 -14.1453 -14.0894 -14.0569 -13.9707 -13.9282 -13.9229
   -13.8028 -13.7965  -1.4945   1.8486   4.6217   6.1531

          k = 0.3125 0.1875 0.4375 (  2852 PWs)   bands (ev):

   -14.2398 -14.2331 -14.1778 -14.1057 -14.0868 -13.9431 -13.9115 -13.8877
   -13.8225 -13.8118  -2.0019   2.5550   5.7360   6.4904

          k =-0.0625 0.8125 0.0625 (  2848 PWs)   bands (ev):

   -14.2497 -14.2470 -14.1628 -14.0735 -14.0456 -13.9791 -13.9621 -13.8888
   -13.8032 -13.8002  -0.9368   1.1413   5.0856   5.2188

          k = 0.8125-0.0625 0.9375 (  2852 PWs)   bands (ev):

   -14.2590 -14.2526 -14.1273 -14.0935 -14.0189 -13.9903 -13.9585 -13.9254
   -13.7958 -13.7897  -0.2883   0.3913   4.7235   5.0614

          k = 0.6875 0.0625 0.8125 (  2847 PWs)   bands (ev):

   -14.2694 -14.2523 -14.1222 -14.0474 -14.0254 -14.0004 -13.9879 -13.9305
   -13.7961 -13.7790  -0.4205   0.5586   4.2559   5.3117

          k = 0.5625 0.1875 0.6875 (  2849 PWs)   bands (ev):

   -14.2647 -14.2477 -14.1354 -14.0648 -14.0519 -13.9793 -13.9582 -13.9237
   -13.8017 -13.7856  -0.9871   1.0944   4.5039   5.7837

          k = 0.4375 0.3125 0.5625 (  2851 PWs)   bands (ev):

   -14.2473 -14.2391 -14.1638 -14.0912 -14.0818 -13.9414 -13.9259 -13.9073
   -13.8131 -13.8048  -1.4156   1.4215   5.5146   6.2214

          k =-0.0625-0.9375 0.0625 (  2840 PWs)   bands (ev):

   -14.2526 -14.2498 -14.1376 -14.1068 -14.0177 -13.9894 -13.9462 -13.9151
   -13.7985 -13.7958  -0.3091   0.3887   4.9717   5.1126

          k =-0.1875-0.8125-0.0625 (  2848 PWs)   bands (ev):

   -14.2558 -14.2498 -14.1504 -14.0625 -14.0462 -13.9883 -13.9630 -13.9020
   -13.8001 -13.7938  -0.8863   1.0900   4.8340   5.1953

          k =-0.3125-0.6875-0.1875 (  2847 PWs)   bands (ev):

   -14.2591 -14.2443 -14.1523 -14.0730 -14.0433 -13.9981 -13.9405 -13.9049
   -13.8071 -13.7913  -1.2586   1.4851   4.7957   5.6679

          k =-0.0625-0.6875 0.0625 (  2851 PWs)   bands (ev):

   -14.2441 -14.2413 -14.1828 -14.0719 -14.0375 -14.0133 -13.9365 -13.8674
   -13.8119 -13.8085  -1.4889   1.9403   5.3111   5.4284

          k =-0.1875-0.5625-0.0625 (  2844 PWs)   bands (ev):

   -14.2424 -14.2368 -14.1830 -14.0943 -14.0518 -13.9930 -13.9159 -13.8712
   -13.8187 -13.8100  -1.8780   2.5704   5.3652   5.8525

          k =-0.0625-0.4375 0.0625 (  2848 PWs)   bands (ev):

   -14.2278 -14.2246 -14.2039 -14.1149 -14.0791 -13.9647 -13.8946 -13.8494
   -13.8363 -13.8271  -2.3389   3.6279   6.0727   6.1303

          k =-0.1875 0.1875 0.1875 (  2818 PWs)   bands (ev):

   -14.2196 -14.2196 -14.1953 -14.1235 -14.1235 -13.8992 -13.8992 -13.8753
   -13.8335 -13.8335  -2.6314   4.2933   7.0192   7.0192

          k =-0.3125 0.3125 0.0625 (  2839 PWs)   bands (ev):

   -14.2326 -14.2280 -14.1847 -14.1170 -14.0990 -13.9274 -13.9093 -13.8745
   -13.8322 -13.8169  -2.3502   3.4862   5.7734   6.9894

          k =-0.4375 0.4375-0.0625 (  2845 PWs)   bands (ev):

   -14.2472 -14.2423 -14.1584 -14.1019 -14.0730 -13.9506 -13.9216 -13.9076
   -13.8080 -13.8066  -1.8227   2.3590   4.9376   6.5480

          k = 0.4375-0.4375 0.8125 (  2850 PWs)   bands (ev):

   -14.2591 -14.2452 -14.1432 -14.0803 -14.0635 -13.9554 -13.9485 -13.9223
   -13.8044 -13.7925  -1.2274   1.3408   4.7116   6.1043

          k = 0.3125-0.3125 0.6875 (  2848 PWs)   bands (ev):

   -14.2590 -14.2420 -14.1526 -14.0740 -14.0598 -13.9775 -13.9405 -13.9076
   -13.8096 -13.7914  -1.2127   1.3172   4.9029   5.8544

          k = 0.1875-0.1875 0.5625 (  2842 PWs)   bands (ev):

   -14.2471 -14.2346 -14.1779 -14.0933 -14.0584 -13.9839 -13.9179 -13.8781
   -13.8206 -13.8045  -1.8042   2.3480   5.4072   5.8624

          k =-0.1875 0.4375 0.1875 (  2839 PWs)   bands (ev):

   -14.2375 -14.2276 -14.1873 -14.1093 -14.0848 -13.9520 -13.9035 -13.8735
   -13.8297 -13.8141  -2.1669   3.0048   5.9981   6.2188

          k =-0.3125 0.5625 0.0625 (  2845 PWs)   bands (ev):

   -14.2483 -14.2432 -14.1635 -14.0931 -14.0571 -13.9811 -13.9203 -13.8968
   -13.8093 -13.8036  -1.7211   2.2373   4.9780   6.0336

          k = 0.5625-0.3125 0.9375 (  2843 PWs)   bands (ev):

   -14.2632 -14.2516 -14.1317 -14.0702 -14.0354 -13.9989 -13.9496 -13.9268
   -13.7975 -13.7875  -1.1044   1.3459   4.4177   5.6216

          k = 0.4375-0.1875 0.8125 (  2851 PWs)   bands (ev):

   -14.2672 -14.2528 -14.1247 -14.0551 -14.0314 -14.0066 -13.9654 -13.9304
   -13.7966 -13.7822  -0.7857   0.9315   4.3812   5.3950

          k = 0.3125-0.0625 0.6875 (  2842 PWs)   bands (ev):

   -14.2564 -14.2493 -14.1495 -14.0724 -14.0303 -14.0127 -13.9404 -13.9065
   -13.8011 -13.7945  -1.2890   1.6112   4.7158   5.5223

          k =-0.1875 0.6875 0.1875 (  2845 PWs)   bands (ev):

   -14.2555 -14.2417 -14.1640 -14.0720 -14.0320 -14.0143 -13.9387 -13.8898
   -13.8107 -13.7950  -1.3637   1.6931   4.9305   5.5798

          k = 0.6875-0.1875 1.0625 (  2848 PWs)   bands (ev):

   -14.2620 -14.2548 -14.1312 -14.0483 -14.0449 -14.0013 -13.9652 -13.9222
   -13.7945 -13.7874  -0.7926   0.9902   4.5597   5.1304

          k = 0.5625-0.0625 0.9375 (  2841 PWs)   bands (ev):

   -14.2678 -14.2618 -14.0948 -14.0563 -14.0247 -13.9968 -13.9864 -13.9540
   -13.7864 -13.7804  -0.2344   0.3950   4.3752   4.7924

          k = 0.4375 0.0625 0.8125 (  2849 PWs)   bands (ev):

   -14.2670 -14.2574 -14.1145 -14.0485 -14.0292 -14.0107 -13.9724 -13.9383
   -13.7914 -13.7822  -0.6700   0.8532   4.3399   5.1319

          k =-0.1875-1.0625 0.1875 (  2850 PWs)   bands (ev):

   -14.2654 -14.2504 -14.1287 -14.0731 -14.0209 -13.9893 -13.9775 -13.9242
   -13.7983 -13.7831  -0.3336   0.4500   4.4316   5.2861

          k =-0.3125-0.9375 0.0625 (  2852 PWs)   bands (ev):

   -14.2648 -14.2580 -14.1102 -14.0734 -14.0213 -13.9922 -13.9756 -13.9412
   -13.7905 -13.7838  -0.2574   0.3940   4.4998   4.9080

          k =-0.1875-0.8125 0.1875 (  2855 PWs)   bands (ev):

   -14.2621 -14.2472 -14.1463 -14.0493 -14.0471 -14.0002 -13.9635 -13.9071
   -13.8025 -13.7875  -0.8586   1.0463   4.5999   5.3851

          k =-0.3125 0.3125 0.3125 (  2845 PWs)   bands (ev):

   -14.2308 -14.2308 -14.1860 -14.1044 -14.1044 -13.9160 -13.9160 -13.8872
   -13.8222 -13.8222  -2.0981   2.6242   6.6152   6.6152

          k =-0.4375 0.4375 0.1875 (  2848 PWs)   bands (ev):

   -14.2434 -14.2401 -14.1652 -14.1009 -14.0808 -13.9417 -13.9188 -13.9050
   -13.8116 -13.8098  -1.7630   2.0906   5.3517   6.5248

          k = 0.4375-0.4375 1.0625 (  2840 PWs)   bands (ev):

   -14.2636 -14.2477 -14.1343 -14.0760 -14.0494 -13.9695 -13.9581 -13.9259
   -13.8008 -13.7874  -1.2095   1.4503   4.3580   6.0583

          k = 0.3125-0.3125 0.9375 (  2863 PWs)   bands (ev):

   -14.2710 -14.2503 -14.1271 -14.0315 -14.0304 -14.0156 -13.9836 -13.9272
   -13.7986 -13.7782  -0.6454   0.7947   4.1598   5.6147

          k =-0.3125 0.5625 0.3125 (  2844 PWs)   bands (ev):

   -14.2488 -14.2363 -14.1675 -14.0913 -14.0770 -13.9546 -13.9234 -13.8969
   -13.8171 -13.8026  -1.5534   1.6991   5.5279   6.0763

          k = 0.5625-0.3125 1.1875 (  2842 PWs)   bands (ev):

   -14.2614 -14.2476 -14.1394 -14.0735 -14.0505 -13.9823 -13.9452 -13.9213
   -13.8022 -13.7891  -1.1236   1.2664   4.6457   5.7393

          k = 0.4375-0.1875 1.0625 (  2846 PWs)   bands (ev):

   -14.2699 -14.2560 -14.1130 -14.0396 -14.0259 -14.0129 -13.9837 -13.9387
   -13.7926 -13.7788  -0.5386   0.7007   4.2276   5.2156

          k =-0.3125-1.1875 0.3125 (  2855 PWs)   bands (ev):

   -14.2669 -14.2470 -14.1376 -14.0522 -14.0434 -13.9994 -13.9623 -13.9191
   -13.8025 -13.7828  -0.8795   1.0014   4.4231   5.6965

          k =-0.4375 0.4375 0.4375 (  2857 PWs)   bands (ev):

   -14.2359 -14.2359 -14.1789 -14.0953 -14.0953 -13.9231 -13.9231 -13.8956
   -13.8171 -13.8171  -1.5151   1.4465   6.3925   6.3925

          k = 0.4375-0.4375 1.3125 (  2854 PWs)   bands (ev):

   -14.2510 -14.2409 -14.1577 -14.0858 -14.0799 -13.9380 -13.9369 -13.9138
   -13.8102 -13.8014  -1.2798   1.2466   5.2947   6.1874

     highest occupied level (ev):     7.4391

!    total energy              =    -318.48880815 Ry
     Harris-Foulkes estimate   =    -318.48880815 Ry
     estimated scf accuracy    <          2.0E-09 Ry

     The total energy is the sum of the following terms:

     one-electron contribution =    -158.34222883 Ry
     hartree contribution      =      96.14730802 Ry
     xc contribution           =     -86.00156207 Ry
     ewald contribution        =    -170.29232527 Ry

     convergence has been achieved in   7 iterations

     Writing output data file sn.alpha.12.4.save

     init_run     :      1.23s CPU      1.28s WALL (       1 calls)
     electrons    :     17.83s CPU     18.56s WALL (       1 calls)

     Called by init_run:
     wfcinit      :      0.76s CPU      0.79s WALL (       1 calls)
     potinit      :      0.06s CPU      0.06s WALL (       1 calls)

     Called by electrons:
     c_bands      :     14.39s CPU     14.81s WALL (       7 calls)
     sum_band     :      2.67s CPU      2.83s WALL (       7 calls)
     v_of_rho     :      0.35s CPU      0.37s WALL (       8 calls)
     newd         :      0.47s CPU      0.56s WALL (       8 calls)
     mix_rho      :      0.03s CPU      0.03s WALL (       7 calls)

     Called by c_bands:
     init_us_2    :      0.39s CPU      0.40s WALL (     900 calls)
     cegterg      :     13.68s CPU     14.09s WALL (     420 calls)

     Called by sum_band:
     sum_band:bec :      0.00s CPU      0.00s WALL (     420 calls)
     addusdens    :      0.51s CPU      0.61s WALL (       7 calls)

     Called by *egterg:
     h_psi        :     11.80s CPU     12.21s WALL (    1732 calls)
     s_psi        :      0.26s CPU      0.26s WALL (    1732 calls)
     g_psi        :      0.07s CPU      0.08s WALL (    1252 calls)
     cdiaghg      :      0.74s CPU      0.74s WALL (    1672 calls)

     Called by h_psi:
     h_psi:pot    :     11.64s CPU     12.05s WALL (    1732 calls)
     h_psi:calbec :      0.48s CPU      0.48s WALL (    1732 calls)
     vloc_psi     :     10.76s CPU     11.15s WALL (    1732 calls)
     add_vuspsi   :      0.39s CPU      0.40s WALL (    1732 calls)

     General routines
     calbec       :      0.60s CPU      0.60s WALL (    2152 calls)
     fft          :      0.15s CPU      0.16s WALL (     124 calls)
     ffts         :      0.01s CPU      0.01s WALL (      15 calls)
     fftw         :      9.74s CPU     10.07s WALL (   45614 calls)
     interpolate  :      0.04s CPU      0.04s WALL (      15 calls)
     davcio       :      0.00s CPU      0.01s WALL (      60 calls)

     Parallel routines
     fft_scatter  :      1.57s CPU      1.62s WALL (   45753 calls)

     PWSCF        :    19.22s CPU        21.10s WALL


   This run was terminated on:  15:32:43  11Nov2017            

=------------------------------------------------------------------------------=
   JOB DONE.
=------------------------------------------------------------------------------=
