
     Program PWSCF v.6.1 (svn rev. 13369) starts on 11Nov2017 at 16:32:54 

     This program is part of the open-source Quantum ESPRESSO suite
     for quantum simulation of materials; please cite
         "P. Giannozzi et al., J. Phys.:Condens. Matter 21 395502 (2009);
          URL http://www.quantum-espresso.org", 
     in publications or presentations arising from this work. More details at
     http://www.quantum-espresso.org/quote

     Parallel version (MPI), running on     4 processors
     R & G space division:  proc/nbgrp/npool/nimage =       4
     Waiting for input...
     Reading input from standard input
     Message from routine read_cards :
     DEPRECATED: no units specified in ATOMIC_POSITIONS card
     Message from routine read_cards :
     ATOMIC_POSITIONS: units set to alat

     Current dimensions of program PWSCF are:
     Max number of different atomic species (ntypx) = 10
     Max number of k-points (npk) =  40000
     Max angular momentum in pseudopotentials (lmaxx) =  3

     Subspace diagonalization in iterative solution of the eigenvalue problem:
     a serial algorithm will be used


     Parallelization info
     --------------------
     sticks:   dense  smooth     PW     G-vecs:    dense   smooth      PW
     Min         542     267     84                16634     5875    1003
     Max         544     268     85                16635     5880    1005
     Sum        2173    1069    337                66539    23505    4015



     bravais-lattice index     =            2
     lattice parameter (alat)  =      12.5400  a.u.
     unit-cell volume          =     492.9838 (a.u.)^3
     number of atoms/cell      =            2
     number of atomic types    =            1
     number of electrons       =        28.00
     number of Kohn-Sham states=           14
     kinetic-energy cutoff     =      50.0000  Ry
     charge density cutoff     =     400.0000  Ry
     convergence threshold     =      1.0E-08
     mixing beta               =       0.7000
     number of iterations used =            8  plain     mixing
     Exchange-correlation      =  SLA  PW   PBX  PBC ( 1  4  3  4 0 0)

     celldm(1)=  12.540000  celldm(2)=   0.000000  celldm(3)=   0.000000
     celldm(4)=   0.000000  celldm(5)=   0.000000  celldm(6)=   0.000000

     crystal axes: (cart. coord. in units of alat)
               a(1) = (  -0.500000   0.000000   0.500000 )  
               a(2) = (   0.000000   0.500000   0.500000 )  
               a(3) = (  -0.500000   0.500000   0.000000 )  

     reciprocal axes: (cart. coord. in units 2 pi/alat)
               b(1) = ( -1.000000 -1.000000  1.000000 )  
               b(2) = (  1.000000  1.000000  1.000000 )  
               b(3) = ( -1.000000  1.000000 -1.000000 )  


     PseudoPot. # 1 for Sn read from file:
     /home/s1333534/quantum_espresso/qe-6.1/pseudo/sn_pbe_v1.4.uspp.F.UPF
     MD5 check sum: 469debedee59599fedebd795477fea03
     Pseudo is Ultrasoft + core correction, Zval = 14.0
     Generated by new atomic code, or converted to UPF format
     Using radial grid of  891 points,  6 beta functions with: 
                l(1) =   0
                l(2) =   0
                l(3) =   1
                l(4) =   1
                l(5) =   2
                l(6) =   2
     Q(r) pseudized with  8 coefficients,  rinner =    1.350   1.350   1.350
                                                       1.350   1.350

     atomic species   valence    mass     pseudopotential
        Sn            14.00   118.71000     Sn( 1.00)

     48 Sym. Ops., with inversion, found (24 have fractional translation)



   Cartesian axes

     site n.     atom                  positions (alat units)
         1           Sn  tau(   1) = (   0.0000000   0.0000000   0.0000000  )
         2           Sn  tau(   2) = (   0.2500000   0.2500000   0.2500000  )

     number of k points=   182

     Number of k-points >= 100: set verbosity='high' to print them.

     Dense  grid:    66539 G-vectors     FFT dimensions: (  60,  60,  60)

     Smooth grid:    23505 G-vectors     FFT dimensions: (  40,  40,  40)

     Estimated max dynamical RAM per process >      40.79MB

     Estimated total allocated dynamical RAM >     163.14MB

     Initial potential from superposition of free atoms

     starting charge   25.99991, renormalised to   28.00000
     Starting wfc are   18 randomized atomic wfcs

     total cpu time spent up to now is        2.9 secs

     per-process dynamical memory:    45.7 Mb

     Self-consistent Calculation

     iteration #  1     ecut=    50.00 Ry     beta=0.70
     Davidson diagonalization with overlap
     ethr =  1.00E-02,  avg # of iterations =  2.7

     total cpu time spent up to now is       10.0 secs

     total energy              =    -317.48587669 Ry
     Harris-Foulkes estimate   =    -319.54752658 Ry
     estimated scf accuracy    <       2.51194529 Ry

     iteration #  2     ecut=    50.00 Ry     beta=0.70
     Davidson diagonalization with overlap
     ethr =  8.97E-03,  avg # of iterations =  3.0

     total cpu time spent up to now is       17.6 secs

     total energy              =    -318.39382004 Ry
     Harris-Foulkes estimate   =    -318.71192158 Ry
     estimated scf accuracy    <       0.47372635 Ry

     iteration #  3     ecut=    50.00 Ry     beta=0.70
     Davidson diagonalization with overlap
     ethr =  1.69E-03,  avg # of iterations =  2.0

     total cpu time spent up to now is       24.4 secs

     total energy              =    -318.48886207 Ry
     Harris-Foulkes estimate   =    -318.49043463 Ry
     estimated scf accuracy    <       0.00288177 Ry

     iteration #  4     ecut=    50.00 Ry     beta=0.70
     Davidson diagonalization with overlap
     ethr =  1.03E-05,  avg # of iterations =  3.0

     total cpu time spent up to now is       31.6 secs

     total energy              =    -318.48975205 Ry
     Harris-Foulkes estimate   =    -318.48986935 Ry
     estimated scf accuracy    <       0.00017388 Ry

     iteration #  5     ecut=    50.00 Ry     beta=0.70
     Davidson diagonalization with overlap
     ethr =  6.21E-07,  avg # of iterations =  3.0

     total cpu time spent up to now is       38.9 secs

     total energy              =    -318.48980526 Ry
     Harris-Foulkes estimate   =    -318.48980594 Ry
     estimated scf accuracy    <       0.00000143 Ry

     iteration #  6     ecut=    50.00 Ry     beta=0.70
     Davidson diagonalization with overlap
     ethr =  5.12E-09,  avg # of iterations =  4.0

     total cpu time spent up to now is       46.8 secs

     total energy              =    -318.48980601 Ry
     Harris-Foulkes estimate   =    -318.48980606 Ry
     estimated scf accuracy    <       0.00000008 Ry

     iteration #  7     ecut=    50.00 Ry     beta=0.70
     Davidson diagonalization with overlap
     ethr =  2.70E-10,  avg # of iterations =  3.1

     total cpu time spent up to now is       54.3 secs

     End of self-consistent calculation

     Number of k-points >= 100: set verbosity='high' to print the bands.

     highest occupied level (ev):     7.0772

!    total energy              =    -318.48980604 Ry
     Harris-Foulkes estimate   =    -318.48980604 Ry
     estimated scf accuracy    <          2.4E-09 Ry

     The total energy is the sum of the following terms:

     one-electron contribution =    -161.44641887 Ry
     hartree contribution      =      97.31734351 Ry
     xc contribution           =     -85.96959564 Ry
     ewald contribution        =    -168.39113503 Ry

     convergence has been achieved in   7 iterations

     Writing output data file sn.alpha.12.540.save

     init_run     :      2.76s CPU      2.86s WALL (       1 calls)
     electrons    :     50.08s CPU     51.46s WALL (       1 calls)

     Called by init_run:
     wfcinit      :      2.28s CPU      2.35s WALL (       1 calls)
     potinit      :      0.06s CPU      0.06s WALL (       1 calls)

     Called by electrons:
     c_bands      :     42.14s CPU     43.18s WALL (       7 calls)
     sum_band     :      7.10s CPU      7.34s WALL (       7 calls)
     v_of_rho     :      0.37s CPU      0.38s WALL (       8 calls)
     newd         :      0.51s CPU      0.58s WALL (       8 calls)
     mix_rho      :      0.03s CPU      0.03s WALL (       7 calls)

     Called by c_bands:
     init_us_2    :      1.12s CPU      1.14s WALL (    2730 calls)
     cegterg      :     40.01s CPU     41.03s WALL (    1274 calls)

     Called by sum_band:
     sum_band:bec :      0.01s CPU      0.01s WALL (    1274 calls)
     addusdens    :      0.54s CPU      0.64s WALL (       7 calls)

     Called by *egterg:
     h_psi        :     34.60s CPU     35.61s WALL (    5239 calls)
     s_psi        :      0.63s CPU      0.64s WALL (    5239 calls)
     g_psi        :      0.23s CPU      0.23s WALL (    3783 calls)
     cdiaghg      :      2.22s CPU      2.22s WALL (    5057 calls)

     Called by h_psi:
     h_psi:pot    :     34.32s CPU     35.32s WALL (    5239 calls)
     h_psi:calbec :      1.49s CPU      1.51s WALL (    5239 calls)
     vloc_psi     :     32.05s CPU     33.00s WALL (    5239 calls)
     add_vuspsi   :      0.77s CPU      0.79s WALL (    5239 calls)

     General routines
     calbec       :      1.86s CPU      1.89s WALL (    6513 calls)
     fft          :      0.18s CPU      0.19s WALL (     124 calls)
     ffts         :      0.01s CPU      0.01s WALL (      15 calls)
     fftw         :     29.85s CPU     30.79s WALL (  138362 calls)
     interpolate  :      0.03s CPU      0.03s WALL (      15 calls)
     davcio       :      0.00s CPU      0.01s WALL (     182 calls)

     Parallel routines
     fft_scatter  :      5.24s CPU      5.09s WALL (  138501 calls)

     PWSCF        :    53.16s CPU        57.57s WALL


   This run was terminated on:  16:33:51  11Nov2017            

=------------------------------------------------------------------------------=
   JOB DONE.
=------------------------------------------------------------------------------=
