
     Program Q2R v.6.1 (svn rev. 13369) starts on 26Nov2017 at 21:35:43 

     This program is part of the open-source Quantum ESPRESSO suite
     for quantum simulation of materials; please cite
         "P. Giannozzi et al., J. Phys.:Condens. Matter 21 395502 (2009);
          URL http://www.quantum-espresso.org", 
     in publications or presentations arising from this work. More details at
     http://www.quantum-espresso.org/quote

     Parallel version (MPI), running on     1 processors

     reading grid info from file sn.alpha.12.56.dyn0    
  reading force constants from file sn.alpha.12.56.dyn1
 macroscopic fields = T
  54.25000  -0.00000   0.00000
  -0.00000  54.25000   0.00000
  -0.00000   0.00000  54.25000
  na=            1
   0.09245   0.00000   0.00000
   0.00000   0.09245  -0.00000
   0.00000   0.00000   0.09245
  na=            2
   0.09245   0.00000   0.00000
   0.00000   0.09245   0.00000
   0.00000   0.00000   0.09245
  nqs=            1
 q=   0.00000000  0.00000000  0.00000000
  reading force constants from file sn.alpha.12.56.dyn2
  nqs=            8
 q=  -0.12500000  0.12500000 -0.12500000
 q=   0.12500000 -0.12500000 -0.12500000
 q=   0.12500000 -0.12500000  0.12500000
 q=  -0.12500000  0.12500000  0.12500000
 q=   0.12500000  0.12500000 -0.12500000
 q=  -0.12500000 -0.12500000 -0.12500000
 q=  -0.12500000 -0.12500000  0.12500000
 q=   0.12500000  0.12500000  0.12500000
  reading force constants from file sn.alpha.12.56.dyn3
  nqs=            8
 q=  -0.25000000  0.25000000 -0.25000000
 q=   0.25000000 -0.25000000 -0.25000000
 q=   0.25000000 -0.25000000  0.25000000
 q=  -0.25000000  0.25000000  0.25000000
 q=   0.25000000  0.25000000 -0.25000000
 q=  -0.25000000 -0.25000000 -0.25000000
 q=  -0.25000000 -0.25000000  0.25000000
 q=   0.25000000  0.25000000  0.25000000
  reading force constants from file sn.alpha.12.56.dyn4
  nqs=            8
 q=  -0.37500000  0.37500000 -0.37500000
 q=   0.37500000 -0.37500000 -0.37500000
 q=   0.37500000 -0.37500000  0.37500000
 q=  -0.37500000  0.37500000  0.37500000
 q=   0.37500000  0.37500000 -0.37500000
 q=  -0.37500000 -0.37500000 -0.37500000
 q=  -0.37500000 -0.37500000  0.37500000
 q=   0.37500000  0.37500000  0.37500000
  reading force constants from file sn.alpha.12.56.dyn5
  nqs=            4
 q=   0.50000000 -0.50000000  0.50000000
 q=   0.50000000  0.50000000  0.50000000
 q=  -0.50000000  0.50000000  0.50000000
 q=   0.50000000  0.50000000 -0.50000000
  reading force constants from file sn.alpha.12.56.dyn6
  nqs=            6
 q=   0.00000000  0.25000000  0.00000000
 q=   0.00000000 -0.25000000  0.00000000
 q=   0.25000000  0.00000000  0.00000000
 q=   0.00000000  0.00000000  0.25000000
 q=   0.00000000  0.00000000 -0.25000000
 q=  -0.25000000  0.00000000  0.00000000
  reading force constants from file sn.alpha.12.56.dyn7
  nqs=           24
 q=  -0.12500000  0.37500000 -0.12500000
 q=  -0.12500000  0.37500000  0.12500000
 q=   0.12500000  0.37500000 -0.12500000
 q=   0.12500000  0.37500000  0.12500000
 q=   0.12500000 -0.37500000  0.12500000
 q=   0.37500000 -0.12500000  0.12500000
 q=   0.12500000 -0.12500000  0.37500000
 q=  -0.12500000 -0.37500000 -0.12500000
 q=   0.12500000 -0.37500000 -0.12500000
 q=  -0.12500000 -0.37500000  0.12500000
 q=   0.12500000 -0.12500000 -0.37500000
 q=   0.37500000 -0.12500000 -0.12500000
 q=  -0.37500000 -0.12500000  0.12500000
 q=   0.37500000  0.12500000  0.12500000
 q=  -0.12500000 -0.12500000  0.37500000
 q=   0.12500000  0.12500000  0.37500000
 q=  -0.37500000  0.12500000 -0.12500000
 q=  -0.12500000  0.12500000 -0.37500000
 q=  -0.37500000 -0.12500000 -0.12500000
 q=   0.12500000  0.12500000 -0.37500000
 q=   0.37500000  0.12500000 -0.12500000
 q=  -0.12500000 -0.12500000 -0.37500000
 q=  -0.37500000  0.12500000  0.12500000
 q=  -0.12500000  0.12500000  0.37500000
  reading force constants from file sn.alpha.12.56.dyn8
  nqs=           24
 q=  -0.25000000  0.50000000 -0.25000000
 q=  -0.25000000  0.50000000  0.25000000
 q=   0.25000000  0.50000000 -0.25000000
 q=   0.25000000  0.50000000  0.25000000
 q=   0.25000000 -0.50000000  0.25000000
 q=   0.50000000 -0.25000000  0.25000000
 q=   0.25000000 -0.25000000  0.50000000
 q=  -0.25000000 -0.50000000 -0.25000000
 q=   0.25000000 -0.50000000 -0.25000000
 q=  -0.25000000 -0.50000000  0.25000000
 q=   0.25000000 -0.25000000 -0.50000000
 q=   0.50000000 -0.25000000 -0.25000000
 q=  -0.50000000 -0.25000000  0.25000000
 q=   0.50000000  0.25000000  0.25000000
 q=  -0.25000000 -0.25000000  0.50000000
 q=   0.25000000  0.25000000  0.50000000
 q=  -0.50000000  0.25000000 -0.25000000
 q=  -0.25000000  0.25000000 -0.50000000
 q=  -0.50000000 -0.25000000 -0.25000000
 q=   0.25000000  0.25000000 -0.50000000
 q=   0.50000000  0.25000000 -0.25000000
 q=  -0.25000000 -0.25000000 -0.50000000
 q=  -0.50000000  0.25000000  0.25000000
 q=  -0.25000000  0.25000000  0.50000000
  reading force constants from file sn.alpha.12.56.dyn9
  nqs=           24
 q=   0.62500000 -0.37500000  0.62500000
 q=   0.62500000 -0.37500000 -0.62500000
 q=  -0.62500000 -0.37500000  0.62500000
 q=  -0.62500000 -0.37500000 -0.62500000
 q=  -0.62500000  0.37500000 -0.62500000
 q=  -0.37500000  0.62500000 -0.62500000
 q=  -0.62500000  0.62500000 -0.37500000
 q=   0.62500000  0.37500000  0.62500000
 q=  -0.62500000  0.37500000  0.62500000
 q=   0.62500000  0.37500000 -0.62500000
 q=  -0.62500000  0.62500000  0.37500000
 q=  -0.37500000  0.62500000  0.62500000
 q=   0.37500000  0.62500000 -0.62500000
 q=  -0.37500000 -0.62500000 -0.62500000
 q=   0.62500000  0.62500000 -0.37500000
 q=  -0.62500000 -0.62500000 -0.37500000
 q=   0.37500000 -0.62500000  0.62500000
 q=   0.62500000 -0.62500000  0.37500000
 q=   0.37500000  0.62500000  0.62500000
 q=  -0.62500000 -0.62500000  0.37500000
 q=  -0.37500000 -0.62500000  0.62500000
 q=   0.62500000  0.62500000  0.37500000
 q=   0.37500000 -0.62500000 -0.62500000
 q=   0.62500000 -0.62500000 -0.37500000
  reading force constants from file sn.alpha.12.56.dyn10
  nqs=           24
 q=   0.50000000 -0.25000000  0.50000000
 q=   0.50000000 -0.25000000 -0.50000000
 q=  -0.50000000 -0.25000000  0.50000000
 q=  -0.50000000 -0.25000000 -0.50000000
 q=  -0.50000000  0.25000000 -0.50000000
 q=  -0.25000000  0.50000000 -0.50000000
 q=  -0.50000000  0.50000000 -0.25000000
 q=   0.50000000  0.25000000  0.50000000
 q=  -0.50000000  0.25000000  0.50000000
 q=   0.50000000  0.25000000 -0.50000000
 q=  -0.50000000  0.50000000  0.25000000
 q=  -0.25000000  0.50000000  0.50000000
 q=   0.25000000  0.50000000 -0.50000000
 q=  -0.25000000 -0.50000000 -0.50000000
 q=   0.50000000  0.50000000 -0.25000000
 q=  -0.50000000 -0.50000000 -0.25000000
 q=   0.25000000 -0.50000000  0.50000000
 q=   0.50000000 -0.50000000  0.25000000
 q=   0.25000000  0.50000000  0.50000000
 q=  -0.50000000 -0.50000000  0.25000000
 q=  -0.25000000 -0.50000000  0.50000000
 q=   0.50000000  0.50000000  0.25000000
 q=   0.25000000 -0.50000000 -0.50000000
 q=   0.50000000 -0.50000000 -0.25000000
  reading force constants from file sn.alpha.12.56.dyn11
  nqs=           24
 q=   0.37500000 -0.12500000  0.37500000
 q=   0.37500000 -0.12500000 -0.37500000
 q=   0.37500000  0.12500000 -0.37500000
 q=  -0.37500000 -0.37500000  0.12500000
 q=  -0.37500000 -0.37500000 -0.12500000
 q=  -0.37500000  0.37500000  0.12500000
 q=  -0.37500000  0.37500000 -0.12500000
 q=  -0.37500000  0.12500000 -0.37500000
 q=  -0.37500000  0.12500000  0.37500000
 q=  -0.37500000 -0.12500000  0.37500000
 q=   0.37500000  0.12500000  0.37500000
 q=  -0.12500000  0.37500000  0.37500000
 q=   0.12500000  0.37500000 -0.37500000
 q=  -0.12500000 -0.37500000 -0.37500000
 q=  -0.12500000  0.37500000 -0.37500000
 q=   0.37500000  0.37500000 -0.12500000
 q=   0.37500000 -0.37500000  0.12500000
 q=   0.12500000 -0.37500000  0.37500000
 q=   0.12500000  0.37500000  0.37500000
 q=  -0.12500000 -0.37500000  0.37500000
 q=  -0.37500000 -0.12500000 -0.37500000
 q=   0.37500000  0.37500000  0.12500000
 q=   0.12500000 -0.37500000 -0.37500000
 q=   0.37500000 -0.37500000 -0.12500000
  reading force constants from file sn.alpha.12.56.dyn12
  nqs=           12
 q=   0.25000000  0.00000000  0.25000000
 q=  -0.25000000 -0.25000000  0.00000000
 q=  -0.25000000  0.25000000  0.00000000
 q=  -0.25000000  0.00000000 -0.25000000
 q=  -0.25000000  0.00000000  0.25000000
 q=   0.25000000  0.00000000 -0.25000000
 q=   0.00000000  0.25000000  0.25000000
 q=   0.00000000  0.25000000 -0.25000000
 q=   0.00000000 -0.25000000 -0.25000000
 q=   0.25000000  0.25000000  0.00000000
 q=   0.25000000 -0.25000000  0.00000000
 q=   0.00000000 -0.25000000  0.25000000
  reading force constants from file sn.alpha.12.56.dyn13
  nqs=            6
 q=   0.00000000  0.50000000  0.00000000
 q=   0.00000000 -0.50000000  0.00000000
 q=   0.00000000  0.00000000 -0.50000000
 q=   0.50000000  0.00000000  0.00000000
 q=  -0.50000000  0.00000000  0.00000000
 q=   0.00000000  0.00000000  0.50000000
  reading force constants from file sn.alpha.12.56.dyn14
  nqs=           24
 q=  -0.12500000  0.62500000 -0.12500000
 q=  -0.12500000  0.62500000  0.12500000
 q=   0.12500000  0.62500000 -0.12500000
 q=   0.12500000  0.62500000  0.12500000
 q=   0.12500000 -0.62500000  0.12500000
 q=   0.12500000 -0.62500000 -0.12500000
 q=  -0.12500000 -0.62500000 -0.12500000
 q=   0.12500000  0.12500000 -0.62500000
 q=  -0.12500000 -0.62500000  0.12500000
 q=   0.62500000 -0.12500000 -0.12500000
 q=  -0.62500000 -0.12500000  0.12500000
 q=   0.62500000  0.12500000  0.12500000
 q=   0.62500000 -0.12500000  0.12500000
 q=  -0.12500000 -0.12500000  0.62500000
 q=  -0.12500000  0.12500000 -0.62500000
 q=   0.12500000  0.12500000  0.62500000
 q=   0.12500000 -0.12500000 -0.62500000
 q=  -0.62500000  0.12500000 -0.12500000
 q=   0.12500000 -0.12500000  0.62500000
 q=  -0.62500000 -0.12500000 -0.12500000
 q=   0.62500000  0.12500000 -0.12500000
 q=  -0.12500000 -0.12500000 -0.62500000
 q=  -0.62500000  0.12500000  0.12500000
 q=  -0.12500000  0.12500000  0.62500000
  reading force constants from file sn.alpha.12.56.dyn15
  nqs=           24
 q=   0.75000000 -0.25000000  0.75000000
 q=   0.75000000 -0.25000000 -0.75000000
 q=  -0.75000000 -0.25000000  0.75000000
 q=  -0.75000000 -0.25000000 -0.75000000
 q=  -0.75000000  0.25000000 -0.75000000
 q=  -0.75000000  0.25000000  0.75000000
 q=   0.75000000  0.25000000  0.75000000
 q=  -0.75000000 -0.75000000  0.25000000
 q=   0.75000000  0.25000000 -0.75000000
 q=  -0.25000000  0.75000000  0.75000000
 q=   0.25000000  0.75000000 -0.75000000
 q=  -0.25000000 -0.75000000 -0.75000000
 q=  -0.25000000  0.75000000 -0.75000000
 q=   0.75000000  0.75000000 -0.25000000
 q=   0.75000000 -0.75000000  0.25000000
 q=  -0.75000000 -0.75000000 -0.25000000
 q=  -0.75000000  0.75000000  0.25000000
 q=   0.25000000 -0.75000000  0.75000000
 q=  -0.75000000  0.75000000 -0.25000000
 q=   0.25000000  0.75000000  0.75000000
 q=  -0.25000000 -0.75000000  0.75000000
 q=   0.75000000  0.75000000  0.25000000
 q=   0.25000000 -0.75000000 -0.75000000
 q=   0.75000000 -0.75000000 -0.25000000
  reading force constants from file sn.alpha.12.56.dyn16
  nqs=           24
 q=   0.62500000 -0.12500000  0.62500000
 q=   0.62500000 -0.12500000 -0.62500000
 q=  -0.62500000 -0.12500000  0.62500000
 q=  -0.62500000 -0.12500000 -0.62500000
 q=  -0.62500000  0.12500000 -0.62500000
 q=  -0.62500000  0.12500000  0.62500000
 q=   0.62500000  0.12500000  0.62500000
 q=  -0.62500000 -0.62500000  0.12500000
 q=   0.62500000  0.12500000 -0.62500000
 q=  -0.12500000  0.62500000  0.62500000
 q=   0.12500000  0.62500000 -0.62500000
 q=  -0.12500000 -0.62500000 -0.62500000
 q=  -0.12500000  0.62500000 -0.62500000
 q=   0.62500000  0.62500000 -0.12500000
 q=   0.62500000 -0.62500000  0.12500000
 q=  -0.62500000 -0.62500000 -0.12500000
 q=  -0.62500000  0.62500000  0.12500000
 q=   0.12500000 -0.62500000  0.62500000
 q=  -0.62500000  0.62500000 -0.12500000
 q=   0.12500000  0.62500000  0.62500000
 q=  -0.12500000 -0.62500000  0.62500000
 q=   0.62500000  0.62500000  0.12500000
 q=   0.12500000 -0.62500000 -0.62500000
 q=   0.62500000 -0.62500000 -0.12500000
  reading force constants from file sn.alpha.12.56.dyn17
  nqs=           12
 q=   0.50000000  0.00000000  0.50000000
 q=   0.50000000  0.00000000 -0.50000000
 q=  -0.50000000  0.00000000 -0.50000000
 q=  -0.50000000  0.00000000  0.50000000
 q=  -0.50000000 -0.50000000  0.00000000
 q=   0.00000000  0.50000000  0.50000000
 q=   0.00000000  0.50000000 -0.50000000
 q=   0.00000000 -0.50000000 -0.50000000
 q=   0.50000000  0.50000000  0.00000000
 q=   0.50000000 -0.50000000  0.00000000
 q=  -0.50000000  0.50000000  0.00000000
 q=   0.00000000 -0.50000000  0.50000000
  reading force constants from file sn.alpha.12.56.dyn18
  nqs=            6
 q=   0.00000000  0.75000000  0.00000000
 q=   0.00000000 -0.75000000  0.00000000
 q=   0.00000000  0.00000000 -0.75000000
 q=   0.75000000  0.00000000  0.00000000
 q=  -0.75000000  0.00000000  0.00000000
 q=   0.00000000  0.00000000  0.75000000
  reading force constants from file sn.alpha.12.56.dyn19
  nqs=           24
 q=   0.87500000 -0.12500000  0.87500000
 q=   0.87500000 -0.12500000 -0.87500000
 q=  -0.87500000 -0.12500000 -0.87500000
 q=  -0.87500000 -0.12500000  0.87500000
 q=  -0.87500000  0.12500000 -0.87500000
 q=  -0.87500000  0.12500000  0.87500000
 q=   0.87500000  0.12500000  0.87500000
 q=  -0.87500000 -0.87500000  0.12500000
 q=   0.87500000  0.12500000 -0.87500000
 q=  -0.12500000  0.87500000  0.87500000
 q=   0.12500000  0.87500000 -0.87500000
 q=  -0.12500000 -0.87500000 -0.87500000
 q=  -0.12500000  0.87500000 -0.87500000
 q=   0.87500000  0.87500000 -0.12500000
 q=   0.87500000 -0.87500000  0.12500000
 q=  -0.87500000 -0.87500000 -0.12500000
 q=  -0.87500000  0.87500000  0.12500000
 q=   0.12500000 -0.87500000  0.87500000
 q=  -0.87500000  0.87500000 -0.12500000
 q=   0.12500000  0.87500000  0.87500000
 q=  -0.12500000 -0.87500000  0.87500000
 q=   0.87500000  0.87500000  0.12500000
 q=   0.12500000 -0.87500000 -0.87500000
 q=   0.87500000 -0.87500000 -0.12500000
  reading force constants from file sn.alpha.12.56.dyn20
  nqs=           12
 q=   0.75000000  0.00000000  0.75000000
 q=  -0.75000000  0.00000000  0.75000000
 q=  -0.75000000  0.00000000 -0.75000000
 q=   0.75000000  0.00000000 -0.75000000
 q=  -0.75000000 -0.75000000  0.00000000
 q=   0.00000000  0.75000000  0.75000000
 q=   0.00000000  0.75000000 -0.75000000
 q=   0.00000000 -0.75000000 -0.75000000
 q=   0.75000000  0.75000000  0.00000000
 q=   0.75000000 -0.75000000  0.00000000
 q=  -0.75000000  0.75000000  0.00000000
 q=   0.00000000 -0.75000000  0.75000000
  reading force constants from file sn.alpha.12.56.dyn21
  nqs=            3
 q=   0.00000000 -1.00000000  0.00000000
 q=  -1.00000000  0.00000000  0.00000000
 q=   0.00000000  0.00000000 -1.00000000
  reading force constants from file sn.alpha.12.56.dyn22
  nqs=           24
 q=  -0.25000000  0.50000000  0.00000000
 q=  -0.25000000 -0.50000000  0.00000000
 q=   0.25000000 -0.50000000  0.00000000
 q=   0.00000000  0.50000000  0.25000000
 q=   0.00000000  0.50000000 -0.25000000
 q=   0.00000000 -0.50000000 -0.25000000
 q=   0.00000000 -0.50000000  0.25000000
 q=   0.25000000  0.50000000  0.00000000
 q=   0.50000000  0.00000000 -0.25000000
 q=  -0.50000000  0.00000000  0.25000000
 q=   0.50000000  0.00000000  0.25000000
 q=   0.50000000 -0.25000000  0.00000000
 q=   0.00000000 -0.25000000  0.50000000
 q=   0.00000000  0.25000000 -0.50000000
 q=   0.00000000  0.25000000  0.50000000
 q=   0.00000000 -0.25000000 -0.50000000
 q=  -0.50000000  0.25000000  0.00000000
 q=  -0.50000000  0.00000000 -0.25000000
 q=  -0.50000000 -0.25000000  0.00000000
 q=   0.50000000  0.25000000  0.00000000
 q=  -0.25000000  0.00000000 -0.50000000
 q=   0.25000000  0.00000000 -0.50000000
 q=  -0.25000000  0.00000000  0.50000000
 q=   0.25000000  0.00000000  0.50000000
  reading force constants from file sn.alpha.12.56.dyn23
  nqs=           48
 q=   0.62500000 -0.37500000  0.87500000
 q=   0.62500000 -0.37500000 -0.87500000
 q=   0.62500000  0.37500000  0.87500000
 q=   0.62500000  0.37500000 -0.87500000
 q=  -0.62500000  0.37500000 -0.87500000
 q=  -0.62500000  0.37500000  0.87500000
 q=   0.87500000 -0.37500000 -0.62500000
 q=  -0.87500000 -0.37500000  0.62500000
 q=   0.87500000  0.37500000  0.62500000
 q=  -0.87500000  0.37500000  0.62500000
 q=   0.87500000  0.37500000 -0.62500000
 q=  -0.87500000  0.37500000 -0.62500000
 q=  -0.62500000 -0.37500000 -0.87500000
 q=   0.87500000 -0.37500000  0.62500000
 q=  -0.62500000 -0.37500000  0.87500000
 q=  -0.87500000 -0.37500000 -0.62500000
 q=  -0.37500000  0.87500000  0.62500000
 q=   0.37500000  0.87500000 -0.62500000
 q=  -0.37500000 -0.87500000 -0.62500000
 q=  -0.37500000  0.62500000 -0.87500000
 q=   0.87500000  0.62500000 -0.37500000
 q=   0.87500000 -0.62500000  0.37500000
 q=  -0.87500000 -0.62500000 -0.37500000
 q=  -0.87500000  0.62500000  0.37500000
 q=  -0.37500000  0.87500000 -0.62500000
 q=   0.37500000 -0.62500000  0.87500000
 q=  -0.87500000  0.62500000 -0.37500000
 q=   0.37500000 -0.87500000  0.62500000
 q=   0.37500000  0.62500000  0.87500000
 q=  -0.37500000  0.62500000  0.87500000
 q=   0.37500000  0.62500000 -0.87500000
 q=  -0.37500000 -0.62500000 -0.87500000
 q=   0.62500000 -0.87500000  0.37500000
 q=  -0.37500000 -0.62500000  0.87500000
 q=  -0.62500000 -0.87500000  0.37500000
 q=   0.62500000  0.87500000  0.37500000
 q=   0.37500000 -0.62500000 -0.87500000
 q=   0.62500000  0.87500000 -0.37500000
 q=  -0.62500000 -0.87500000 -0.37500000
 q=  -0.62500000  0.87500000  0.37500000
 q=   0.37500000 -0.87500000 -0.62500000
 q=  -0.37500000 -0.87500000  0.62500000
 q=   0.37500000  0.87500000  0.62500000
 q=   0.62500000 -0.87500000 -0.37500000
 q=  -0.87500000 -0.62500000  0.37500000
 q=  -0.62500000  0.87500000 -0.37500000
 q=   0.87500000  0.62500000  0.37500000
 q=   0.87500000 -0.62500000 -0.37500000
  reading force constants from file sn.alpha.12.56.dyn24
  nqs=           24
 q=   0.50000000 -0.25000000  0.75000000
 q=   0.50000000  0.25000000  0.75000000
 q=   0.50000000  0.25000000 -0.75000000
 q=  -0.50000000  0.25000000 -0.75000000
 q=  -0.50000000  0.25000000  0.75000000
 q=   0.75000000 -0.25000000 -0.50000000
 q=  -0.75000000 -0.25000000  0.50000000
 q=   0.75000000  0.25000000  0.50000000
 q=  -0.75000000  0.25000000  0.50000000
 q=   0.75000000  0.25000000 -0.50000000
 q=  -0.75000000  0.25000000 -0.50000000
 q=  -0.50000000 -0.25000000 -0.75000000
 q=   0.75000000 -0.25000000  0.50000000
 q=  -0.50000000 -0.25000000  0.75000000
 q=  -0.75000000 -0.25000000 -0.50000000
 q=  -0.25000000  0.50000000 -0.75000000
 q=   0.75000000  0.50000000 -0.25000000
 q=  -0.75000000 -0.50000000 -0.25000000
 q=  -0.75000000  0.50000000  0.25000000
 q=   0.25000000 -0.50000000  0.75000000
 q=  -0.25000000  0.50000000  0.75000000
 q=   0.25000000  0.50000000 -0.75000000
 q=  -0.25000000 -0.50000000 -0.75000000
 q=  -0.50000000  0.75000000  0.25000000
  reading force constants from file sn.alpha.12.56.dyn25
  nqs=           24
 q=   0.75000000 -0.25000000  1.00000000
 q=   0.75000000  0.25000000  1.00000000
 q=  -0.75000000  0.25000000 -1.00000000
 q=   1.00000000 -0.25000000 -0.75000000
 q=  -1.00000000 -0.25000000  0.75000000
 q=   1.00000000  0.25000000  0.75000000
 q=   1.00000000  0.25000000 -0.75000000
 q=  -0.75000000 -0.25000000 -1.00000000
 q=  -0.25000000  1.00000000  0.75000000
 q=   0.25000000  1.00000000 -0.75000000
 q=  -0.25000000 -1.00000000 -0.75000000
 q=  -0.25000000  0.75000000 -1.00000000
 q=   1.00000000  0.75000000 -0.25000000
 q=   1.00000000 -0.75000000  0.25000000
 q=  -1.00000000 -0.75000000 -0.25000000
 q=  -1.00000000  0.75000000  0.25000000
 q=   0.25000000 -0.75000000  1.00000000
 q=   0.25000000 -1.00000000  0.75000000
 q=   0.25000000  0.75000000  1.00000000
 q=  -0.25000000 -0.75000000 -1.00000000
 q=   0.75000000 -1.00000000  0.25000000
 q=  -0.75000000 -1.00000000  0.25000000
 q=   0.75000000  1.00000000 -0.25000000
 q=  -0.75000000 -1.00000000 -0.25000000
  reading force constants from file sn.alpha.12.56.dyn26
  nqs=           48
 q=   0.62500000 -0.12500000  0.87500000
 q=   0.62500000 -0.12500000 -0.87500000
 q=   0.62500000  0.12500000  0.87500000
 q=   0.62500000  0.12500000 -0.87500000
 q=  -0.62500000  0.12500000 -0.87500000
 q=  -0.62500000  0.12500000  0.87500000
 q=   0.87500000 -0.12500000 -0.62500000
 q=  -0.87500000 -0.12500000  0.62500000
 q=   0.87500000  0.12500000  0.62500000
 q=  -0.87500000  0.12500000  0.62500000
 q=   0.87500000  0.12500000 -0.62500000
 q=  -0.87500000  0.12500000 -0.62500000
 q=  -0.62500000 -0.12500000 -0.87500000
 q=   0.87500000 -0.12500000  0.62500000
 q=  -0.62500000 -0.12500000  0.87500000
 q=  -0.87500000 -0.12500000 -0.62500000
 q=  -0.12500000  0.87500000  0.62500000
 q=   0.12500000  0.87500000 -0.62500000
 q=  -0.12500000 -0.87500000 -0.62500000
 q=  -0.12500000  0.62500000 -0.87500000
 q=   0.87500000  0.62500000 -0.12500000
 q=   0.87500000 -0.62500000  0.12500000
 q=  -0.87500000 -0.62500000 -0.12500000
 q=  -0.87500000  0.62500000  0.12500000
 q=  -0.12500000  0.87500000 -0.62500000
 q=   0.12500000 -0.62500000  0.87500000
 q=  -0.87500000  0.62500000 -0.12500000
 q=   0.12500000 -0.87500000  0.62500000
 q=   0.12500000  0.62500000  0.87500000
 q=  -0.12500000  0.62500000  0.87500000
 q=   0.12500000  0.62500000 -0.87500000
 q=  -0.12500000 -0.62500000 -0.87500000
 q=   0.62500000 -0.87500000  0.12500000
 q=  -0.12500000 -0.62500000  0.87500000
 q=  -0.62500000 -0.87500000  0.12500000
 q=   0.62500000  0.87500000  0.12500000
 q=   0.12500000 -0.62500000 -0.87500000
 q=   0.62500000  0.87500000 -0.12500000
 q=  -0.62500000 -0.87500000 -0.12500000
 q=  -0.62500000  0.87500000  0.12500000
 q=   0.12500000 -0.87500000 -0.62500000
 q=  -0.12500000 -0.87500000  0.62500000
 q=   0.12500000  0.87500000  0.62500000
 q=   0.62500000 -0.87500000 -0.12500000
 q=  -0.87500000 -0.62500000  0.12500000
 q=  -0.62500000  0.87500000 -0.12500000
 q=   0.87500000  0.62500000  0.12500000
 q=   0.87500000 -0.62500000 -0.12500000
  reading force constants from file sn.alpha.12.56.dyn27
  nqs=           24
 q=   0.50000000  0.00000000  0.75000000
 q=   0.50000000  0.00000000 -0.75000000
 q=  -0.50000000  0.00000000 -0.75000000
 q=  -0.50000000  0.00000000  0.75000000
 q=   0.75000000  0.00000000 -0.50000000
 q=  -0.75000000  0.00000000  0.50000000
 q=   0.75000000  0.00000000  0.50000000
 q=  -0.75000000  0.00000000 -0.50000000
 q=   0.00000000  0.75000000  0.50000000
 q=   0.00000000  0.75000000 -0.50000000
 q=   0.00000000 -0.75000000 -0.50000000
 q=   0.00000000  0.50000000 -0.75000000
 q=   0.75000000  0.50000000  0.00000000
 q=   0.75000000 -0.50000000  0.00000000
 q=  -0.75000000 -0.50000000  0.00000000
 q=  -0.75000000  0.50000000  0.00000000
 q=   0.00000000 -0.50000000  0.75000000
 q=   0.00000000 -0.75000000  0.50000000
 q=   0.00000000  0.50000000  0.75000000
 q=   0.00000000 -0.50000000 -0.75000000
 q=   0.50000000 -0.75000000  0.00000000
 q=  -0.50000000 -0.75000000  0.00000000
 q=   0.50000000  0.75000000  0.00000000
 q=  -0.50000000  0.75000000  0.00000000
  reading force constants from file sn.alpha.12.56.dyn28
  nqs=           12
 q=  -0.25000000 -1.00000000  0.00000000
 q=   0.25000000  1.00000000  0.00000000
 q=   0.00000000 -1.00000000  0.25000000
 q=   0.00000000 -1.00000000 -0.25000000
 q=  -1.00000000  0.00000000 -0.25000000
 q=   1.00000000  0.00000000  0.25000000
 q=  -1.00000000 -0.25000000  0.00000000
 q=   0.00000000 -0.25000000 -1.00000000
 q=   0.00000000  0.25000000  1.00000000
 q=   1.00000000  0.25000000  0.00000000
 q=  -0.25000000  0.00000000  1.00000000
 q=   0.25000000  0.00000000  1.00000000
  reading force constants from file sn.alpha.12.56.dyn29
  nqs=            6
 q=  -0.50000000 -1.00000000  0.00000000
 q=   0.00000000  1.00000000 -0.50000000
 q=   0.00000000  1.00000000  0.50000000
 q=   0.50000000 -1.00000000  0.00000000
 q=  -1.00000000 -0.50000000  0.00000000
 q=   0.00000000 -0.50000000 -1.00000000

      q-space grid ok, #points =  512

      fft-check success (sum of imaginary terms < 10^-12)

     Q2R          :     0.09s CPU         0.10s WALL


   This run was terminated on:  21:35:43  26Nov2017            

=------------------------------------------------------------------------------=
   JOB DONE.
=------------------------------------------------------------------------------=
