
     Program PWSCF v.6.1 (svn rev. 13369) starts on 13Nov2017 at  9:50:13 

     This program is part of the open-source Quantum ESPRESSO suite
     for quantum simulation of materials; please cite
         "P. Giannozzi et al., J. Phys.:Condens. Matter 21 395502 (2009);
          URL http://www.quantum-espresso.org", 
     in publications or presentations arising from this work. More details at
     http://www.quantum-espresso.org/quote

     Parallel version (MPI), running on     4 processors
     R & G space division:  proc/nbgrp/npool/nimage =       4
     Waiting for input...
     Reading input from standard input

     Current dimensions of program PWSCF are:
     Max number of different atomic species (ntypx) = 10
     Max number of k-points (npk) =  40000
     Max angular momentum in pseudopotentials (lmaxx) =  3

     Subspace diagonalization in iterative solution of the eigenvalue problem:
     a serial algorithm will be used


     Parallelization info
     --------------------
     sticks:   dense  smooth     PW     G-vecs:    dense   smooth      PW
     Min        1064     423    179                14184     3606     979
     Max        1065     424    180                14185     3607     980
     Sum        4257    1693    717                56739    14425    3917



     bravais-lattice index     =            0
     lattice parameter (alat)  =      10.5000  a.u.
     unit-cell volume          =     300.7916 (a.u.)^3
     number of atoms/cell      =            2
     number of atomic types    =            1
     number of electrons       =        28.00
     number of Kohn-Sham states=           18
     kinetic-energy cutoff     =      50.0000  Ry
     charge density cutoff     =     500.0000  Ry
     convergence threshold     =      1.0E-08
     mixing beta               =       0.7000
     number of iterations used =            8  plain     mixing
     Exchange-correlation      =  SLA  PW   PBX  PBC ( 1  4  3  4 0 0)

     celldm(1)=  10.500000  celldm(2)=   0.000000  celldm(3)=   0.000000
     celldm(4)=   0.000000  celldm(5)=   0.000000  celldm(6)=   0.000000

     crystal axes: (cart. coord. in units of alat)
               a(1) = (   0.986837   0.000000   0.000000 )  
               a(2) = (   0.000000   0.986837   0.000000 )  
               a(3) = (   0.493419   0.493419   0.266813 )  

     reciprocal axes: (cart. coord. in units 2 pi/alat)
               b(1) = (  1.013339  0.000000 -1.873974 )  
               b(2) = (  0.000000  1.013339 -1.873974 )  
               b(3) = (  0.000000  0.000000  3.747943 )  


     PseudoPot. # 1 for Sn read from file:
     /home/s1333534/quantum_espresso/qe-6.1/pseudo/sn_pbe_v1.4.uspp.F.UPF
     MD5 check sum: 469debedee59599fedebd795477fea03
     Pseudo is Ultrasoft + core correction, Zval = 14.0
     Generated by new atomic code, or converted to UPF format
     Using radial grid of  891 points,  6 beta functions with: 
                l(1) =   0
                l(2) =   0
                l(3) =   1
                l(4) =   1
                l(5) =   2
                l(6) =   2
     Q(r) pseudized with  8 coefficients,  rinner =    1.350   1.350   1.350
                                                       1.350   1.350

     atomic species   valence    mass     pseudopotential
        Sn            14.00   118.71000     Sn( 1.00)

     No symmetry found



   Cartesian axes

     site n.     atom                  positions (alat units)
         1           Sn  tau(   1) = (   1.0725850   1.3160481   0.0533919  )
         2           Sn  tau(   2) = (   0.5198369   0.2763739   0.0177973  )

     number of k points=   800  Marzari-Vanderbilt smearing, width (Ry)=  0.0200

     Number of k-points >= 100: set verbosity='high' to print them.

     Dense  grid:    56739 G-vectors     FFT dimensions: (  75,  75,  60)

     Smooth grid:    14425 G-vectors     FFT dimensions: (  48,  48,  36)

     Estimated max dynamical RAM per process >     111.58MB

     Estimated total allocated dynamical RAM >     446.31MB

     Initial potential from superposition of free atoms

     starting charge   25.99991, renormalised to   28.00000
     Starting wfc are   18 randomized atomic wfcs

     total cpu time spent up to now is       13.8 secs

     per-process dynamical memory:   122.1 Mb

     Self-consistent Calculation

     iteration #  1     ecut=    50.00 Ry     beta=0.70
     Davidson diagonalization with overlap
     ethr =  1.00E-02,  avg # of iterations =  4.2

     total cpu time spent up to now is       67.8 secs

     total energy              =    -317.47765514 Ry
     Harris-Foulkes estimate   =    -319.34049181 Ry
     estimated scf accuracy    <       2.28506015 Ry

     iteration #  2     ecut=    50.00 Ry     beta=0.70
     Davidson diagonalization with overlap
     ethr =  8.16E-03,  avg # of iterations =  2.4

     total cpu time spent up to now is      112.6 secs

     total energy              =    -318.28245313 Ry
     Harris-Foulkes estimate   =    -318.55955116 Ry
     estimated scf accuracy    <       0.40803249 Ry

     iteration #  3     ecut=    50.00 Ry     beta=0.70
     Davidson diagonalization with overlap
     ethr =  1.46E-03,  avg # of iterations =  2.0

     total cpu time spent up to now is      156.4 secs

     total energy              =    -318.36691829 Ry
     Harris-Foulkes estimate   =    -318.36844320 Ry
     estimated scf accuracy    <       0.00261547 Ry

     iteration #  4     ecut=    50.00 Ry     beta=0.70
     Davidson diagonalization with overlap
     ethr =  9.34E-06,  avg # of iterations =  3.8

     total cpu time spent up to now is      208.0 secs

     total energy              =    -318.36749550 Ry
     Harris-Foulkes estimate   =    -318.36762810 Ry
     estimated scf accuracy    <       0.00026905 Ry

     iteration #  5     ecut=    50.00 Ry     beta=0.70
     Davidson diagonalization with overlap
     ethr =  9.61E-07,  avg # of iterations =  2.5

     total cpu time spent up to now is      247.8 secs

     total energy              =    -318.36753728 Ry
     Harris-Foulkes estimate   =    -318.36754631 Ry
     estimated scf accuracy    <       0.00001597 Ry

     iteration #  6     ecut=    50.00 Ry     beta=0.70
     Davidson diagonalization with overlap
     ethr =  5.70E-08,  avg # of iterations =  3.0

     total cpu time spent up to now is      296.4 secs

     total energy              =    -318.36754287 Ry
     Harris-Foulkes estimate   =    -318.36754326 Ry
     estimated scf accuracy    <       0.00000076 Ry

     iteration #  7     ecut=    50.00 Ry     beta=0.70
     Davidson diagonalization with overlap
     ethr =  2.71E-09,  avg # of iterations =  3.0

     total cpu time spent up to now is      343.7 secs

     total energy              =    -318.36754301 Ry
     Harris-Foulkes estimate   =    -318.36754312 Ry
     estimated scf accuracy    <       0.00000015 Ry

     iteration #  8     ecut=    50.00 Ry     beta=0.70
     Davidson diagonalization with overlap
     ethr =  5.47E-10,  avg # of iterations =  2.0

     total cpu time spent up to now is      387.8 secs

     End of self-consistent calculation

     Number of k-points >= 100: set verbosity='high' to print the bands.

     the Fermi energy is    14.0874 ev

!    total energy              =    -318.36754305 Ry
     Harris-Foulkes estimate   =    -318.36754305 Ry
     estimated scf accuracy    <          2.5E-09 Ry

     The total energy is the sum of the following terms:

     one-electron contribution =     -95.41284063 Ry
     hartree contribution      =      71.24005013 Ry
     xc contribution           =     -86.33300178 Ry
     ewald contribution        =    -207.86178233 Ry
     smearing contrib. (-TS)   =       0.00003156 Ry

     convergence has been achieved in   8 iterations

     Writing output data file sn.beta.10.50.save

     init_run     :     13.29s CPU     13.67s WALL (       1 calls)
     electrons    :    361.82s CPU    374.47s WALL (       1 calls)

     Called by init_run:
     wfcinit      :     12.34s CPU     12.70s WALL (       1 calls)
     potinit      :      0.25s CPU      0.25s WALL (       1 calls)

     Called by electrons:
     c_bands      :    303.57s CPU    313.89s WALL (       8 calls)
     sum_band     :     56.83s CPU     58.67s WALL (       8 calls)
     v_of_rho     :      0.73s CPU      0.79s WALL (       9 calls)
     newd         :      0.72s CPU      0.78s WALL (       9 calls)
     mix_rho      :      0.06s CPU      0.07s WALL (       8 calls)

     Called by c_bands:
     init_us_2    :      3.50s CPU      3.60s WALL (   13600 calls)
     cegterg      :    296.59s CPU    306.66s WALL (    6400 calls)

     Called by sum_band:
     sum_band:bec :      0.06s CPU      0.10s WALL (    6400 calls)
     addusdens    :      0.81s CPU      0.91s WALL (       8 calls)

     Called by *egterg:
     h_psi        :    268.60s CPU    278.10s WALL (   25448 calls)
     s_psi        :      2.83s CPU      2.86s WALL (   25448 calls)
     g_psi        :      0.77s CPU      0.80s WALL (   18248 calls)
     cdiaghg      :     16.28s CPU     16.58s WALL (   24648 calls)

     Called by h_psi:
     h_psi:pot    :    266.86s CPU    276.32s WALL (   25448 calls)
     h_psi:calbec :      5.88s CPU      6.05s WALL (   25448 calls)
     vloc_psi     :    256.78s CPU    265.87s WALL (   25448 calls)
     add_vuspsi   :      4.18s CPU      4.30s WALL (   25448 calls)

     General routines
     calbec       :      7.78s CPU      7.98s WALL (   31848 calls)
     fft          :      0.45s CPU      0.51s WALL (     140 calls)
     ffts         :      0.01s CPU      0.01s WALL (      17 calls)
     fftw         :    200.13s CPU    207.20s WALL (  805642 calls)
     interpolate  :      0.08s CPU      0.09s WALL (      17 calls)
     davcio       :      0.01s CPU      0.03s WALL (     800 calls)

     Parallel routines
     fft_scatter  :     49.36s CPU     50.64s WALL (  805799 calls)

     PWSCF        :  6m16.14s CPU     7m 4.67s WALL


   This run was terminated on:   9:57:18  13Nov2017            

=------------------------------------------------------------------------------=
   JOB DONE.
=------------------------------------------------------------------------------=
