
     Program PWSCF v.6.1 (svn rev. 13369) starts on 11Nov2017 at 15:30:57 

     This program is part of the open-source Quantum ESPRESSO suite
     for quantum simulation of materials; please cite
         "P. Giannozzi et al., J. Phys.:Condens. Matter 21 395502 (2009);
          URL http://www.quantum-espresso.org", 
     in publications or presentations arising from this work. More details at
     http://www.quantum-espresso.org/quote

     Parallel version (MPI), running on     4 processors
     R & G space division:  proc/nbgrp/npool/nimage =       4
     Waiting for input...
     Reading input from standard input
     Message from routine read_cards :
     DEPRECATED: no units specified in ATOMIC_POSITIONS card
     Message from routine read_cards :
     ATOMIC_POSITIONS: units set to alat

     Current dimensions of program PWSCF are:
     Max number of different atomic species (ntypx) = 10
     Max number of k-points (npk) =  40000
     Max angular momentum in pseudopotentials (lmaxx) =  3

     Subspace diagonalization in iterative solution of the eigenvalue problem:
     a serial algorithm will be used


     Parallelization info
     --------------------
     sticks:   dense  smooth     PW     G-vecs:    dense   smooth      PW
     Min         409     205     63                10947     3868     682
     Max         410     206     64                10951     3869     686
     Sum        1639     823    253                43799    15473    2733



     bravais-lattice index     =            2
     lattice parameter (alat)  =      10.9000  a.u.
     unit-cell volume          =     323.7572 (a.u.)^3
     number of atoms/cell      =            2
     number of atomic types    =            1
     number of electrons       =        28.00
     number of Kohn-Sham states=           14
     kinetic-energy cutoff     =      50.0000  Ry
     charge density cutoff     =     400.0000  Ry
     convergence threshold     =      1.0E-08
     mixing beta               =       0.7000
     number of iterations used =            8  plain     mixing
     Exchange-correlation      =  SLA  PW   PBX  PBC ( 1  4  3  4 0 0)

     celldm(1)=  10.900000  celldm(2)=   0.000000  celldm(3)=   0.000000
     celldm(4)=   0.000000  celldm(5)=   0.000000  celldm(6)=   0.000000

     crystal axes: (cart. coord. in units of alat)
               a(1) = (  -0.500000   0.000000   0.500000 )  
               a(2) = (   0.000000   0.500000   0.500000 )  
               a(3) = (  -0.500000   0.500000   0.000000 )  

     reciprocal axes: (cart. coord. in units 2 pi/alat)
               b(1) = ( -1.000000 -1.000000  1.000000 )  
               b(2) = (  1.000000  1.000000  1.000000 )  
               b(3) = ( -1.000000  1.000000 -1.000000 )  


     PseudoPot. # 1 for Sn read from file:
     /home/s1333534/quantum_espresso/qe-6.1/pseudo/sn_pbe_v1.4.uspp.F.UPF
     MD5 check sum: 469debedee59599fedebd795477fea03
     Pseudo is Ultrasoft + core correction, Zval = 14.0
     Generated by new atomic code, or converted to UPF format
     Using radial grid of  891 points,  6 beta functions with: 
                l(1) =   0
                l(2) =   0
                l(3) =   1
                l(4) =   1
                l(5) =   2
                l(6) =   2
     Q(r) pseudized with  8 coefficients,  rinner =    1.350   1.350   1.350
                                                       1.350   1.350

     atomic species   valence    mass     pseudopotential
        Sn            14.00   118.71000     Sn( 1.00)

     24 Sym. Ops. (no inversion) found
          (note: 24 additional sym.ops. were found but ignored
           their fractional translations are incommensurate with FFT grid)


   Cartesian axes

     site n.     atom                  positions (alat units)
         1           Sn  tau(   1) = (   0.0000000   0.0000000   0.0000000  )
         2           Sn  tau(   2) = (   0.2500000   0.2500000   0.2500000  )

     number of k points=    60
                       cart. coord. in units 2pi/alat
        k(    1) = (  -0.0625000   0.0625000   0.0625000), wk =   0.0078125
        k(    2) = (  -0.1875000   0.1875000  -0.0625000), wk =   0.0234375
        k(    3) = (  -0.3125000   0.3125000  -0.1875000), wk =   0.0234375
        k(    4) = (  -0.4375000   0.4375000  -0.3125000), wk =   0.0234375
        k(    5) = (   0.4375000  -0.4375000   0.5625000), wk =   0.0234375
        k(    6) = (   0.3125000  -0.3125000   0.4375000), wk =   0.0234375
        k(    7) = (   0.1875000  -0.1875000   0.3125000), wk =   0.0234375
        k(    8) = (   0.0625000  -0.0625000   0.1875000), wk =   0.0234375
        k(    9) = (  -0.0625000   0.3125000   0.0625000), wk =   0.0234375
        k(   10) = (  -0.1875000   0.4375000  -0.0625000), wk =   0.0468750
        k(   11) = (  -0.3125000   0.5625000  -0.1875000), wk =   0.0468750
        k(   12) = (   0.5625000  -0.3125000   0.6875000), wk =   0.0468750
        k(   13) = (   0.4375000  -0.1875000   0.5625000), wk =   0.0468750
        k(   14) = (   0.3125000  -0.0625000   0.4375000), wk =   0.0468750
        k(   15) = (   0.1875000   0.0625000   0.3125000), wk =   0.0468750
        k(   16) = (  -0.0625000   0.5625000   0.0625000), wk =   0.0234375
        k(   17) = (  -0.1875000   0.6875000  -0.0625000), wk =   0.0468750
        k(   18) = (   0.6875000  -0.1875000   0.8125000), wk =   0.0468750
        k(   19) = (   0.5625000  -0.0625000   0.6875000), wk =   0.0468750
        k(   20) = (   0.4375000   0.0625000   0.5625000), wk =   0.0468750
        k(   21) = (   0.3125000   0.1875000   0.4375000), wk =   0.0468750
        k(   22) = (  -0.0625000   0.8125000   0.0625000), wk =   0.0234375
        k(   23) = (   0.8125000  -0.0625000   0.9375000), wk =   0.0468750
        k(   24) = (   0.6875000   0.0625000   0.8125000), wk =   0.0468750
        k(   25) = (   0.5625000   0.1875000   0.6875000), wk =   0.0468750
        k(   26) = (   0.4375000   0.3125000   0.5625000), wk =   0.0468750
        k(   27) = (  -0.0625000  -0.9375000   0.0625000), wk =   0.0234375
        k(   28) = (  -0.1875000  -0.8125000  -0.0625000), wk =   0.0468750
        k(   29) = (  -0.3125000  -0.6875000  -0.1875000), wk =   0.0468750
        k(   30) = (  -0.0625000  -0.6875000   0.0625000), wk =   0.0234375
        k(   31) = (  -0.1875000  -0.5625000  -0.0625000), wk =   0.0468750
        k(   32) = (  -0.0625000  -0.4375000   0.0625000), wk =   0.0234375
        k(   33) = (  -0.1875000   0.1875000   0.1875000), wk =   0.0078125
        k(   34) = (  -0.3125000   0.3125000   0.0625000), wk =   0.0234375
        k(   35) = (  -0.4375000   0.4375000  -0.0625000), wk =   0.0234375
        k(   36) = (   0.4375000  -0.4375000   0.8125000), wk =   0.0234375
        k(   37) = (   0.3125000  -0.3125000   0.6875000), wk =   0.0234375
        k(   38) = (   0.1875000  -0.1875000   0.5625000), wk =   0.0234375
        k(   39) = (  -0.1875000   0.4375000   0.1875000), wk =   0.0234375
        k(   40) = (  -0.3125000   0.5625000   0.0625000), wk =   0.0468750
        k(   41) = (   0.5625000  -0.3125000   0.9375000), wk =   0.0468750
        k(   42) = (   0.4375000  -0.1875000   0.8125000), wk =   0.0468750
        k(   43) = (   0.3125000  -0.0625000   0.6875000), wk =   0.0468750
        k(   44) = (  -0.1875000   0.6875000   0.1875000), wk =   0.0234375
        k(   45) = (   0.6875000  -0.1875000   1.0625000), wk =   0.0468750
        k(   46) = (   0.5625000  -0.0625000   0.9375000), wk =   0.0468750
        k(   47) = (   0.4375000   0.0625000   0.8125000), wk =   0.0468750
        k(   48) = (  -0.1875000  -1.0625000   0.1875000), wk =   0.0234375
        k(   49) = (  -0.3125000  -0.9375000   0.0625000), wk =   0.0468750
        k(   50) = (  -0.1875000  -0.8125000   0.1875000), wk =   0.0234375
        k(   51) = (  -0.3125000   0.3125000   0.3125000), wk =   0.0078125
        k(   52) = (  -0.4375000   0.4375000   0.1875000), wk =   0.0234375
        k(   53) = (   0.4375000  -0.4375000   1.0625000), wk =   0.0234375
        k(   54) = (   0.3125000  -0.3125000   0.9375000), wk =   0.0234375
        k(   55) = (  -0.3125000   0.5625000   0.3125000), wk =   0.0234375
        k(   56) = (   0.5625000  -0.3125000   1.1875000), wk =   0.0468750
        k(   57) = (   0.4375000  -0.1875000   1.0625000), wk =   0.0468750
        k(   58) = (  -0.3125000  -1.1875000   0.3125000), wk =   0.0234375
        k(   59) = (  -0.4375000   0.4375000   0.4375000), wk =   0.0078125
        k(   60) = (   0.4375000  -0.4375000   1.3125000), wk =   0.0234375

     Dense  grid:    43799 G-vectors     FFT dimensions: (  50,  50,  50)

     Smooth grid:    15473 G-vectors     FFT dimensions: (  36,  36,  36)

     Estimated max dynamical RAM per process >      14.05MB

     Estimated total allocated dynamical RAM >      56.21MB

     Initial potential from superposition of free atoms

     starting charge   25.99991, renormalised to   28.00000
     Starting wfc are   18 randomized atomic wfcs

     total cpu time spent up to now is        0.9 secs

     per-process dynamical memory:    19.0 Mb

     Self-consistent Calculation

     iteration #  1     ecut=    50.00 Ry     beta=0.70
     Davidson diagonalization with overlap
     ethr =  1.00E-02,  avg # of iterations =  3.0

     total cpu time spent up to now is        2.5 secs

     total energy              =    -317.38052608 Ry
     Harris-Foulkes estimate   =    -319.29562827 Ry
     estimated scf accuracy    <       2.34103307 Ry

     iteration #  2     ecut=    50.00 Ry     beta=0.70
     Davidson diagonalization with overlap
     ethr =  8.36E-03,  avg # of iterations =  3.0

     total cpu time spent up to now is        4.2 secs

     total energy              =    -318.22992444 Ry
     Harris-Foulkes estimate   =    -318.53540706 Ry
     estimated scf accuracy    <       0.46006717 Ry

     iteration #  3     ecut=    50.00 Ry     beta=0.70
     Davidson diagonalization with overlap
     ethr =  1.64E-03,  avg # of iterations =  2.0

     total cpu time spent up to now is        5.7 secs

     total energy              =    -318.32128862 Ry
     Harris-Foulkes estimate   =    -318.32268551 Ry
     estimated scf accuracy    <       0.00257899 Ry

     iteration #  4     ecut=    50.00 Ry     beta=0.70
     Davidson diagonalization with overlap
     ethr =  9.21E-06,  avg # of iterations =  3.0

     total cpu time spent up to now is        7.3 secs

     total energy              =    -318.32215185 Ry
     Harris-Foulkes estimate   =    -318.32227101 Ry
     estimated scf accuracy    <       0.00017784 Ry

     iteration #  5     ecut=    50.00 Ry     beta=0.70
     Davidson diagonalization with overlap
     ethr =  6.35E-07,  avg # of iterations =  2.9

     total cpu time spent up to now is        8.9 secs

     total energy              =    -318.32220568 Ry
     Harris-Foulkes estimate   =    -318.32220689 Ry
     estimated scf accuracy    <       0.00000229 Ry

     iteration #  6     ecut=    50.00 Ry     beta=0.70
     Davidson diagonalization with overlap
     ethr =  8.17E-09,  avg # of iterations =  3.3

     total cpu time spent up to now is       10.6 secs

     total energy              =    -318.32220637 Ry
     Harris-Foulkes estimate   =    -318.32220645 Ry
     estimated scf accuracy    <       0.00000012 Ry

     iteration #  7     ecut=    50.00 Ry     beta=0.70
     Davidson diagonalization with overlap
     ethr =  4.45E-10,  avg # of iterations =  3.0

     total cpu time spent up to now is       12.2 secs

     End of self-consistent calculation

          k =-0.0625 0.0625 0.0625 (  1926 PWs)   bands (ev):

    -9.6058  -9.6058  -9.5949  -9.4629  -9.4629  -8.7345  -8.7345  -8.7287
    -8.6195  -8.6195  -0.1373  12.6633  13.3440  13.3440

          k =-0.1875 0.1875-0.0625 (  1937 PWs)   bands (ev):

    -9.6466  -9.6249  -9.5906  -9.4268  -9.4009  -8.7921  -8.7752  -8.7007
    -8.6258  -8.5783   0.1503  10.7639  12.0831  13.1296

          k =-0.3125 0.3125-0.1875 (  1937 PWs)   bands (ev):

    -9.6780  -9.6625  -9.5628  -9.3729  -9.3374  -8.8366  -8.8132  -8.7388
    -8.5911  -8.5511   0.8519   8.1512  11.4132  12.3785

          k =-0.4375 0.4375-0.3125 (  1927 PWs)   bands (ev):

    -9.6870  -9.6853  -9.5359  -9.3382  -9.3114  -8.8428  -8.8273  -8.7937
    -8.5598  -8.5453   1.8531   5.9900  11.1054  11.7652

          k = 0.4375-0.4375 0.5625 (  1931 PWs)   bands (ev):

    -9.6957  -9.6818  -9.5300  -9.3197  -9.3176  -8.8454  -8.8207  -8.8127
    -8.5565  -8.5425   2.3691   5.1786  11.1610  11.4571

          k = 0.3125-0.3125 0.4375 (  1930 PWs)   bands (ev):

    -9.6924  -9.6705  -9.5485  -9.3447  -9.3149  -8.8700  -8.7933  -8.7805
    -8.5750  -8.5419   1.5062   6.6288  11.5102  11.5532

          k = 0.1875-0.1875 0.3125 (  1934 PWs)   bands (ev):

    -9.6700  -9.6483  -9.5776  -9.3900  -9.3514  -8.8534  -8.7589  -8.7382
    -8.6021  -8.5603   0.5754   8.9941  11.9285  12.2094

          k = 0.0625-0.0625 0.1875 (  1934 PWs)   bands (ev):

    -9.6287  -9.6138  -9.5994  -9.4494  -9.4183  -8.7985  -8.7193  -8.7136
    -8.6331  -8.5918   0.0069  11.6898  12.6453  12.8930

          k =-0.0625 0.3125 0.0625 (  1945 PWs)   bands (ev):

    -9.6495  -9.6290  -9.6104  -9.4204  -9.3511  -8.8871  -8.7034  -8.6850
    -8.6488  -8.5744   0.2947  10.6295  11.8428  11.9757

          k =-0.1875 0.4375-0.0625 (  1940 PWs)   bands (ev):

    -9.6857  -9.6609  -9.5793  -9.3693  -9.2764  -8.9665  -8.7541  -8.6932
    -8.6111  -8.5468   0.8613   8.8643  10.5781  11.5981

          k =-0.3125 0.5625-0.1875 (  1932 PWs)   bands (ev):

    -9.7230  -9.6861  -9.5189  -9.3165  -9.2370  -8.9919  -8.8079  -8.7756
    -8.5588  -8.5097   1.7884   6.7076  10.0021  11.0186

          k = 0.5625-0.3125 0.6875 (  1936 PWs)   bands (ev):

    -9.7400  -9.6993  -9.4752  -9.2786  -9.2514  -8.9557  -8.8689  -8.8244
    -8.5315  -8.4928   2.6507   5.3141   9.6684  10.8735

          k = 0.4375-0.1875 0.5625 (  1933 PWs)   bands (ev):

    -9.7284  -9.7033  -9.4801  -9.3145  -9.2425  -8.9474  -8.8481  -8.8211
    -8.5289  -8.5076   2.1284   6.1125   9.5731  11.2581

          k = 0.3125-0.0625 0.4375 (  1932 PWs)   bands (ev):

    -9.6987  -9.6843  -9.5330  -9.3607  -9.2746  -8.9342  -8.8111  -8.7331
    -8.5795  -8.5273   1.1326   8.1062   9.9138  11.9713

          k = 0.1875 0.0625 0.3125 (  1937 PWs)   bands (ev):

    -9.6671  -9.6406  -9.5853  -9.4046  -9.3482  -8.8708  -8.7610  -8.6837
    -8.6338  -8.5588   0.4359   9.8074  11.3092  12.5301

          k =-0.0625 0.5625 0.0625 (  1941 PWs)   bands (ev):

    -9.6826  -9.6694  -9.6074  -9.3182  -9.1814  -9.0919  -8.7821  -8.6450
    -8.5897  -8.5649   1.2924   8.3353  10.3607  10.4900

          k =-0.1875 0.6875-0.0625 (  1937 PWs)   bands (ev):

    -9.7193  -9.6988  -9.5373  -9.2514  -9.1681  -9.1066  -8.8536  -8.7295
    -8.5393  -8.5144   2.1121   6.9088   9.4131  10.0483

          k = 0.6875-0.1875 0.8125 (  1929 PWs)   bands (ev):

    -9.7630  -9.7135  -9.4497  -9.1919  -9.1633  -9.0938  -8.9346  -8.8268
    -8.5107  -8.4608   3.1102   5.5304   8.4867   9.9993

          k = 0.5625-0.0625 0.6875 (  1930 PWs)   bands (ev):

    -9.7705  -9.7211  -9.4198  -9.2146  -9.1434  -9.0601  -8.9745  -8.8513
    -8.4985  -8.4558   3.0350   5.6370   8.0836  10.4439

          k = 0.4375 0.0625 0.5625 (  1929 PWs)   bands (ev):

    -9.7360  -9.7140  -9.4602  -9.3117  -9.2052  -8.9864  -8.8720  -8.8213
    -8.5110  -8.5028   2.0464   6.6991   8.7849  11.2103

          k = 0.3125 0.1875 0.4375 (  1933 PWs)   bands (ev):

    -9.6980  -9.6740  -9.5429  -9.3544  -9.2941  -8.9082  -8.7994  -8.7509
    -8.5803  -8.5330   1.2597   7.3847  10.7309  11.8244

          k =-0.0625 0.8125 0.0625 (  1949 PWs)   bands (ev):

    -9.7114  -9.7016  -9.5321  -9.2965  -9.1725  -8.9939  -8.9255  -8.7385
    -8.5243  -8.5150   2.8232   5.9478   9.4530   9.6848

          k = 0.8125-0.0625 0.9375 (  1938 PWs)   bands (ev):

    -9.7390  -9.7192  -9.4360  -9.3450  -9.0943  -9.0099  -8.9367  -8.8435
    -8.4994  -8.4806   3.8278   4.8364   8.8380   9.4145

          k = 0.6875 0.0625 0.8125 (  1921 PWs)   bands (ev):

    -9.7721  -9.7208  -9.4176  -9.2106  -9.1165  -9.0551  -9.0072  -8.8570
    -8.4972  -8.4482   3.7365   5.0039   8.0623   9.8177

          k = 0.5625 0.1875 0.6875 (  1934 PWs)   bands (ev):

    -9.7599  -9.7127  -9.4416  -9.2412  -9.1970  -9.0155  -8.9249  -8.8397
    -8.5115  -8.4689   2.9213   5.3937   8.7523  10.5835

          k = 0.4375 0.3125 0.5625 (  1934 PWs)   bands (ev):

    -9.7133  -9.6884  -9.5091  -9.3176  -9.2877  -8.8937  -8.8231  -8.8182
    -8.5486  -8.5230   2.2602   5.5298  10.5113  11.3372

          k =-0.0625-0.9375 0.0625 (  1937 PWs)   bands (ev):

    -9.7181  -9.7087  -9.4684  -9.3867  -9.0900  -9.0068  -8.9016  -8.8136
    -8.5088  -8.5006   3.7683   4.8178   9.2724   9.5196

          k =-0.1875-0.8125-0.0625 (  1938 PWs)   bands (ev):

    -9.7320  -9.7119  -9.4930  -9.2622  -9.1756  -9.0193  -8.9288  -8.7792
    -8.5135  -8.4933   2.9202   5.8702   9.0349   9.6194

          k =-0.3125-0.6875-0.1875 (  1927 PWs)   bands (ev):

    -9.7460  -9.7003  -9.4873  -9.2592  -9.1771  -9.0705  -8.8630  -8.7951
    -8.5331  -8.4833   2.4187   6.1029   9.2066  10.3848

          k =-0.0625-0.6875 0.0625 (  1945 PWs)   bands (ev):

    -9.6986  -9.6879  -9.5791  -9.2494  -9.1965  -9.0883  -8.8495  -8.6787
    -8.5528  -8.5400   1.9945   7.1328   9.8150  10.0111

          k =-0.1875-0.5625-0.0625 (  1936 PWs)   bands (ev):

    -9.7030  -9.6811  -9.5654  -9.3172  -9.1948  -9.0666  -8.7906  -8.7035
    -8.5736  -8.5341   1.4223   7.9085   9.9385  10.7213

          k =-0.0625-0.4375 0.0625 (  1950 PWs)   bands (ev):

    -9.6662  -9.6484  -9.6168  -9.3763  -9.2704  -8.9871  -8.7281  -8.6538
    -8.6291  -8.5718   0.7242   9.5113  11.0900  11.1081

          k =-0.1875 0.1875 0.1875 (  1937 PWs)   bands (ev):

    -9.6459  -9.6459  -9.5821  -9.3999  -9.3999  -8.7774  -8.7774  -8.7525
    -8.5886  -8.5886   0.2925   9.8891  12.6081  12.6081

          k =-0.3125 0.3125 0.0625 (  1934 PWs)   bands (ev):

    -9.6836  -9.6613  -9.5577  -9.3849  -9.3253  -8.8579  -8.8255  -8.6950
    -8.6147  -8.5405   0.7165   8.9377  10.5886  12.6251

          k =-0.4375 0.4375-0.0625 (  1934 PWs)   bands (ev):

    -9.7116  -9.7064  -9.4910  -9.3468  -9.2505  -8.9182  -8.8708  -8.7763
    -8.5422  -8.5160   1.5314   7.3750   9.2927  11.8758

          k = 0.4375-0.4375 0.8125 (  1940 PWs)   bands (ev):

    -9.7449  -9.7076  -9.4576  -9.2864  -9.2298  -8.9345  -8.9181  -8.8320
    -8.5168  -8.4909   2.5294   5.6552   9.1349  11.1356

          k = 0.3125-0.3125 0.6875 (  1938 PWs)   bands (ev):

    -9.7461  -9.6940  -9.4872  -9.2634  -9.2259  -9.0109  -8.8638  -8.8028
    -8.5395  -8.4843   2.5459   5.6214   9.4954  10.7146

          k = 0.1875-0.1875 0.5625 (  1941 PWs)   bands (ev):

    -9.7168  -9.6737  -9.5528  -9.3159  -9.2152  -9.0372  -8.7964  -8.7247
    -8.5783  -8.5187   1.5469   7.3656  10.2193  10.7042

          k =-0.1875 0.4375 0.1875 (  1939 PWs)   bands (ev):

    -9.6940  -9.6581  -9.5701  -9.3628  -9.2877  -8.9438  -8.7606  -8.7226
    -8.6015  -8.5396   0.9956   8.1564  11.2486  11.2713

          k =-0.3125 0.5625 0.0625 (  1938 PWs)   bands (ev):

    -9.7176  -9.7031  -9.5098  -9.3181  -9.2079  -9.0265  -8.8072  -8.7797
    -8.5429  -8.5141   1.6773   7.3115   9.3436  11.0242

          k = 0.5625-0.3125 0.9375 (  1932 PWs)   bands (ev):

    -9.7547  -9.7257  -9.4299  -9.2563  -9.1463  -9.0721  -8.9067  -8.8481
    -8.4977  -8.4757   2.6580   6.0711   8.4276  10.3005

          k = 0.4375-0.1875 0.8125 (  1926 PWs)   bands (ev):

    -9.7664  -9.7255  -9.4151  -9.2131  -9.1398  -9.0905  -8.9449  -8.8572
    -8.4975  -8.4576   3.2058   5.3625   8.4477   9.9048

          k = 0.3125-0.0625 0.6875 (  1932 PWs)   bands (ev):

    -9.7366  -9.7180  -9.4788  -9.2575  -9.1386  -9.1131  -8.8636  -8.8014
    -8.5139  -8.4941   2.3394   6.5226   8.9026  10.1327

          k =-0.1875 0.6875 0.1875 (  1937 PWs)   bands (ev):

    -9.7367  -9.6907  -9.5227  -9.2529  -9.1552  -9.1120  -8.8566  -8.7501
    -8.5465  -8.4945   2.2191   6.5766   9.3161  10.2591

          k = 0.6875-0.1875 1.0625 (  1925 PWs)   bands (ev):

    -9.7505  -9.7304  -9.4352  -9.2102  -9.1835  -9.0531  -8.9389  -8.8376
    -8.4934  -8.4732   3.1005   5.7030   8.6039   9.4706

          k = 0.5625-0.0625 0.9375 (  1923 PWs)   bands (ev):

    -9.7674  -9.7510  -9.3379  -9.2340  -9.1228  -9.0417  -9.0078  -8.9189
    -8.4684  -8.4517   3.9954   4.8644   8.2451   8.9067

          k = 0.4375 0.0625 0.8125 (  1924 PWs)   bands (ev):

    -9.7650  -9.7397  -9.3879  -9.1941  -9.1569  -9.0765  -8.9684  -8.8771
    -8.4818  -8.4576   3.3331   5.4619   8.2484   9.4640

          k =-0.1875-1.0625 0.1875 (  1921 PWs)   bands (ev):

    -9.7593  -9.7117  -9.4400  -9.2843  -9.1001  -9.0081  -8.9917  -8.8401
    -8.5055  -8.4604   3.8127   4.8852   8.3432   9.7986

          k =-0.3125-0.9375 0.0625 (  1925 PWs)   bands (ev):

    -9.7577  -9.7378  -9.3835  -9.2840  -9.1055  -9.0199  -8.9824  -8.8876
    -8.4813  -8.4619   3.9210   4.8567   8.4538   9.1250

          k =-0.1875-0.8125 0.1875 (  1928 PWs)   bands (ev):

    -9.7515  -9.7044  -9.4811  -9.2216  -9.1787  -9.0531  -8.9299  -8.7941
    -8.5200  -8.4729   2.9934   5.7405   8.6695   9.9537

          k =-0.3125 0.3125 0.3125 (  1928 PWs)   bands (ev):

    -9.6711  -9.6711  -9.5621  -9.3492  -9.3492  -8.8078  -8.8078  -8.7860
    -8.5668  -8.5668   1.1184   7.3402  11.9716  11.9716

          k =-0.4375 0.4375 0.1875 (  1933 PWs)   bands (ev):

    -9.7013  -9.6989  -9.5094  -9.3438  -9.2779  -8.8857  -8.8525  -8.7821
    -8.5501  -8.5274   1.6438   6.6908  10.1474  11.8435

          k = 0.4375-0.4375 1.0625 (  1935 PWs)   bands (ev):

    -9.7571  -9.7158  -9.4362  -9.2735  -9.1840  -8.9661  -8.9652  -8.8376
    -8.5042  -8.4766   2.5100   6.1341   8.3470  11.0569

          k = 0.3125-0.3125 0.9375 (  1916 PWs)   bands (ev):

    -9.7764  -9.7156  -9.4277  -9.1463  -9.1306  -9.1155  -8.9968  -8.8473
    -8.5020  -8.4457   3.4178   5.2716   7.9426  10.3303

          k =-0.3125 0.5625 0.3125 (  1931 PWs)   bands (ev):

    -9.7195  -9.6790  -9.5216  -9.3156  -9.2725  -8.9413  -8.8129  -8.7839
    -8.5641  -8.5137   1.9955   6.0492  10.5681  11.0743

          k = 0.5625-0.3125 1.1875 (  1934 PWs)   bands (ev):

    -9.7513  -9.7132  -9.4501  -9.2659  -9.1946  -9.0225  -8.8866  -8.8373
    -8.5147  -8.4787   2.6752   5.6666   9.0080  10.4896

          k = 0.4375-0.1875 1.0625 (  1924 PWs)   bands (ev):

    -9.7735  -9.7343  -9.3866  -9.1728  -9.1418  -9.0832  -9.0013  -8.8776
    -8.4855  -8.4477   3.5662   5.2066   8.0425   9.6241

          k =-0.3125-1.1875 0.3125 (  1934 PWs)   bands (ev):

    -9.7662  -9.7077  -9.4520  -9.1966  -9.1814  -9.0718  -8.9311  -8.8282
    -8.5162  -8.4596   3.0727   5.3634   8.5471  10.4609

          k =-0.4375 0.4375 0.4375 (  1925 PWs)   bands (ev):

    -9.6789  -9.6789  -9.5487  -9.3295  -9.3295  -8.8145  -8.8145  -8.8103
    -8.5598  -8.5598   2.1202   5.4520  11.6315  11.6315

          k = 0.4375-0.4375 1.3125 (  1933 PWs)   bands (ev):

    -9.7223  -9.6940  -9.4932  -9.3027  -9.2821  -8.8891  -8.8613  -8.8224
    -8.5373  -8.5155   2.5086   5.2565  10.1708  11.2787

     highest occupied level (ev):    13.3440

!    total energy              =    -318.32220642 Ry
     Harris-Foulkes estimate   =    -318.32220642 Ry
     estimated scf accuracy    <          7.4E-10 Ry

     The total energy is the sum of the following terms:

     one-electron contribution =    -120.66267283 Ry
     hartree contribution      =      82.53752170 Ry
     xc contribution           =     -86.47000637 Ry
     ewald contribution        =    -193.72704893 Ry

     convergence has been achieved in   7 iterations

     Writing output data file sn.alpha.10.9.save

     init_run     :      0.83s CPU      0.85s WALL (       1 calls)
     electrons    :     10.96s CPU     11.35s WALL (       1 calls)

     Called by init_run:
     wfcinit      :      0.48s CPU      0.49s WALL (       1 calls)
     potinit      :      0.04s CPU      0.04s WALL (       1 calls)

     Called by electrons:
     c_bands      :      8.82s CPU      9.12s WALL (       7 calls)
     sum_band     :      1.62s CPU      1.67s WALL (       7 calls)
     v_of_rho     :      0.21s CPU      0.21s WALL (       8 calls)
     newd         :      0.35s CPU      0.35s WALL (       8 calls)
     mix_rho      :      0.02s CPU      0.02s WALL (       7 calls)

     Called by c_bands:
     init_us_2    :      0.23s CPU      0.23s WALL (     900 calls)
     cegterg      :      8.36s CPU      8.65s WALL (     420 calls)

     Called by sum_band:
     sum_band:bec :      0.00s CPU      0.00s WALL (     420 calls)
     addusdens    :      0.39s CPU      0.39s WALL (       7 calls)

     Called by *egterg:
     h_psi        :      6.94s CPU      7.22s WALL (    1696 calls)
     s_psi        :      0.14s CPU      0.14s WALL (    1696 calls)
     g_psi        :      0.05s CPU      0.05s WALL (    1216 calls)
     cdiaghg      :      0.73s CPU      0.73s WALL (    1636 calls)

     Called by h_psi:
     h_psi:pot    :      6.89s CPU      7.16s WALL (    1696 calls)
     h_psi:calbec :      0.27s CPU      0.28s WALL (    1696 calls)
     vloc_psi     :      6.46s CPU      6.72s WALL (    1696 calls)
     add_vuspsi   :      0.16s CPU      0.16s WALL (    1696 calls)

     General routines
     calbec       :      0.33s CPU      0.34s WALL (    2116 calls)
     fft          :      0.09s CPU      0.10s WALL (     124 calls)
     ffts         :      0.01s CPU      0.01s WALL (      15 calls)
     fftw         :      6.35s CPU      6.51s WALL (   45752 calls)
     interpolate  :      0.02s CPU      0.02s WALL (      15 calls)
     davcio       :      0.00s CPU      0.00s WALL (      60 calls)

     Parallel routines
     fft_scatter  :      0.97s CPU      1.12s WALL (   45891 calls)

     PWSCF        :    11.94s CPU        13.22s WALL


   This run was terminated on:  15:31:10  11Nov2017            

=------------------------------------------------------------------------------=
   JOB DONE.
=------------------------------------------------------------------------------=
