
     Program PWSCF v.6.1 (svn rev. 13369) starts on 13Nov2017 at  9:50:45 

     This program is part of the open-source Quantum ESPRESSO suite
     for quantum simulation of materials; please cite
         "P. Giannozzi et al., J. Phys.:Condens. Matter 21 395502 (2009);
          URL http://www.quantum-espresso.org", 
     in publications or presentations arising from this work. More details at
     http://www.quantum-espresso.org/quote

     Parallel version (MPI), running on     4 processors
     R & G space division:  proc/nbgrp/npool/nimage =       4
     Waiting for input...
     Reading input from standard input

     Current dimensions of program PWSCF are:
     Max number of different atomic species (ntypx) = 10
     Max number of k-points (npk) =  40000
     Max angular momentum in pseudopotentials (lmaxx) =  3

     Subspace diagonalization in iterative solution of the eigenvalue problem:
     a serial algorithm will be used


     Parallelization info
     --------------------
     sticks:   dense  smooth     PW     G-vecs:    dense   smooth      PW
     Min        1121     445    187                15261     3846    1047
     Max        1122     446    188                15262     3847    1048
     Sum        4485    1781    749                61045    15385    4189



     bravais-lattice index     =            0
     lattice parameter (alat)  =      10.7500  a.u.
     unit-cell volume          =     322.7923 (a.u.)^3
     number of atoms/cell      =            2
     number of atomic types    =            1
     number of electrons       =        28.00
     number of Kohn-Sham states=           18
     kinetic-energy cutoff     =      50.0000  Ry
     charge density cutoff     =     500.0000  Ry
     convergence threshold     =      1.0E-08
     mixing beta               =       0.7000
     number of iterations used =            8  plain     mixing
     Exchange-correlation      =  SLA  PW   PBX  PBC ( 1  4  3  4 0 0)

     celldm(1)=  10.750000  celldm(2)=   0.000000  celldm(3)=   0.000000
     celldm(4)=   0.000000  celldm(5)=   0.000000  celldm(6)=   0.000000

     crystal axes: (cart. coord. in units of alat)
               a(1) = (   0.986837   0.000000   0.000000 )  
               a(2) = (   0.000000   0.986837   0.000000 )  
               a(3) = (   0.493419   0.493419   0.266813 )  

     reciprocal axes: (cart. coord. in units 2 pi/alat)
               b(1) = (  1.013339  0.000000 -1.873974 )  
               b(2) = (  0.000000  1.013339 -1.873974 )  
               b(3) = (  0.000000  0.000000  3.747943 )  


     PseudoPot. # 1 for Sn read from file:
     /home/s1333534/quantum_espresso/qe-6.1/pseudo/sn_pbe_v1.4.uspp.F.UPF
     MD5 check sum: 469debedee59599fedebd795477fea03
     Pseudo is Ultrasoft + core correction, Zval = 14.0
     Generated by new atomic code, or converted to UPF format
     Using radial grid of  891 points,  6 beta functions with: 
                l(1) =   0
                l(2) =   0
                l(3) =   1
                l(4) =   1
                l(5) =   2
                l(6) =   2
     Q(r) pseudized with  8 coefficients,  rinner =    1.350   1.350   1.350
                                                       1.350   1.350

     atomic species   valence    mass     pseudopotential
        Sn            14.00   118.71000     Sn( 1.00)

     No symmetry found



   Cartesian axes

     site n.     atom                  positions (alat units)
         1           Sn  tau(   1) = (   1.0725850   1.3160481   0.0533919  )
         2           Sn  tau(   2) = (   0.5198369   0.2763739   0.0177973  )

     number of k points=   800  Marzari-Vanderbilt smearing, width (Ry)=  0.0200

     Number of k-points >= 100: set verbosity='high' to print them.

     Dense  grid:    61045 G-vectors     FFT dimensions: (  75,  75,  60)

     Smooth grid:    15385 G-vectors     FFT dimensions: (  48,  48,  40)

     Estimated max dynamical RAM per process >     119.13MB

     Estimated total allocated dynamical RAM >     476.52MB

     Initial potential from superposition of free atoms

     starting charge   25.99991, renormalised to   28.00000
     Starting wfc are   18 randomized atomic wfcs

     total cpu time spent up to now is       15.2 secs

     per-process dynamical memory:   133.4 Mb

     Self-consistent Calculation

     iteration #  1     ecut=    50.00 Ry     beta=0.70
     Davidson diagonalization with overlap
     ethr =  1.00E-02,  avg # of iterations =  4.1

     total cpu time spent up to now is       73.3 secs

     total energy              =    -317.49448483 Ry
     Harris-Foulkes estimate   =    -319.39467748 Ry
     estimated scf accuracy    <       2.32907211 Ry

     iteration #  2     ecut=    50.00 Ry     beta=0.70
     Davidson diagonalization with overlap
     ethr =  8.32E-03,  avg # of iterations =  2.4

     total cpu time spent up to now is      122.4 secs

     total energy              =    -318.31638975 Ry
     Harris-Foulkes estimate   =    -318.60156695 Ry
     estimated scf accuracy    <       0.41985714 Ry

     iteration #  3     ecut=    50.00 Ry     beta=0.70
     Davidson diagonalization with overlap
     ethr =  1.50E-03,  avg # of iterations =  2.0

     total cpu time spent up to now is      170.2 secs

     total energy              =    -318.40331254 Ry
     Harris-Foulkes estimate   =    -318.40491370 Ry
     estimated scf accuracy    <       0.00272938 Ry

     iteration #  4     ecut=    50.00 Ry     beta=0.70
     Davidson diagonalization with overlap
     ethr =  9.75E-06,  avg # of iterations =  3.7

     total cpu time spent up to now is      225.6 secs

     total energy              =    -318.40390236 Ry
     Harris-Foulkes estimate   =    -318.40404613 Ry
     estimated scf accuracy    <       0.00028952 Ry

     iteration #  5     ecut=    50.00 Ry     beta=0.70
     Davidson diagonalization with overlap
     ethr =  1.03E-06,  avg # of iterations =  2.6

     total cpu time spent up to now is      267.4 secs

     total energy              =    -318.40394782 Ry
     Harris-Foulkes estimate   =    -318.40395738 Ry
     estimated scf accuracy    <       0.00001692 Ry

     iteration #  6     ecut=    50.00 Ry     beta=0.70
     Davidson diagonalization with overlap
     ethr =  6.04E-08,  avg # of iterations =  3.0

     total cpu time spent up to now is      320.2 secs

     total energy              =    -318.40395387 Ry
     Harris-Foulkes estimate   =    -318.40395430 Ry
     estimated scf accuracy    <       0.00000085 Ry

     iteration #  7     ecut=    50.00 Ry     beta=0.70
     Davidson diagonalization with overlap
     ethr =  3.03E-09,  avg # of iterations =  3.0

     total cpu time spent up to now is      370.6 secs

     total energy              =    -318.40395403 Ry
     Harris-Foulkes estimate   =    -318.40395414 Ry
     estimated scf accuracy    <       0.00000016 Ry

     iteration #  8     ecut=    50.00 Ry     beta=0.70
     Davidson diagonalization with overlap
     ethr =  5.83E-10,  avg # of iterations =  2.2

     total cpu time spent up to now is      418.6 secs

     End of self-consistent calculation

     Number of k-points >= 100: set verbosity='high' to print the bands.

     the Fermi energy is    12.8183 ev

!    total energy              =    -318.40395407 Ry
     Harris-Foulkes estimate   =    -318.40395408 Ry
     estimated scf accuracy    <          3.0E-09 Ry

     The total energy is the sum of the following terms:

     one-electron contribution =    -102.97112948 Ry
     hartree contribution      =      73.82827100 Ry
     xc contribution           =     -86.23331822 Ry
     ewald contribution        =    -203.02778739 Ry
     smearing contrib. (-TS)   =       0.00001001 Ry

     convergence has been achieved in   8 iterations

     Writing output data file sn.beta.10.75.save

     init_run     :     14.31s CPU     15.00s WALL (       1 calls)
     electrons    :    391.85s CPU    403.68s WALL (       1 calls)

     Called by init_run:
     wfcinit      :     13.32s CPU     13.87s WALL (       1 calls)
     potinit      :      0.26s CPU      0.27s WALL (       1 calls)

     Called by electrons:
     c_bands      :    328.21s CPU    337.88s WALL (       8 calls)
     sum_band     :     62.17s CPU     63.94s WALL (       8 calls)
     v_of_rho     :      0.75s CPU      0.79s WALL (       9 calls)
     newd         :      0.75s CPU      0.83s WALL (       9 calls)
     mix_rho      :      0.07s CPU      0.08s WALL (       8 calls)

     Called by c_bands:
     init_us_2    :      3.94s CPU      4.00s WALL (   13600 calls)
     cegterg      :    320.37s CPU    329.86s WALL (    6400 calls)

     Called by sum_band:
     sum_band:bec :      0.06s CPU      0.10s WALL (    6400 calls)
     addusdens    :      0.85s CPU      0.97s WALL (       8 calls)

     Called by *egterg:
     h_psi        :    291.91s CPU    301.22s WALL (   25578 calls)
     s_psi        :      3.03s CPU      3.06s WALL (   25578 calls)
     g_psi        :      0.84s CPU      0.87s WALL (   18378 calls)
     cdiaghg      :     16.30s CPU     16.51s WALL (   24778 calls)

     Called by h_psi:
     h_psi:pot    :    289.63s CPU    298.89s WALL (   25578 calls)
     h_psi:calbec :      6.13s CPU      6.30s WALL (   25578 calls)
     vloc_psi     :    278.63s CPU    287.54s WALL (   25578 calls)
     add_vuspsi   :      4.84s CPU      4.95s WALL (   25578 calls)

     General routines
     calbec       :      8.11s CPU      8.29s WALL (   31978 calls)
     fft          :      0.48s CPU      0.62s WALL (     140 calls)
     ffts         :      0.01s CPU      0.01s WALL (      17 calls)
     fftw         :    224.48s CPU    231.70s WALL (  803948 calls)
     interpolate  :      0.09s CPU      0.09s WALL (      17 calls)
     davcio       :      0.02s CPU      0.03s WALL (     800 calls)

     Parallel routines
     fft_scatter  :     54.48s CPU     56.55s WALL (  804105 calls)

     PWSCF        :  6m47.25s CPU     7m36.22s WALL


   This run was terminated on:   9:58:21  13Nov2017            

=------------------------------------------------------------------------------=
   JOB DONE.
=------------------------------------------------------------------------------=
