
     Program PWSCF v.6.1 (svn rev. 13369) starts on 12Nov2017 at 12:59:22 

     This program is part of the open-source Quantum ESPRESSO suite
     for quantum simulation of materials; please cite
         "P. Giannozzi et al., J. Phys.:Condens. Matter 21 395502 (2009);
          URL http://www.quantum-espresso.org", 
     in publications or presentations arising from this work. More details at
     http://www.quantum-espresso.org/quote

     Parallel version (MPI), running on     4 processors
     R & G space division:  proc/nbgrp/npool/nimage =       4
     Waiting for input...
     Reading input from standard input
     Message from routine read_cards :
     DEPRECATED: no units specified in ATOMIC_POSITIONS card
     Message from routine read_cards :
     ATOMIC_POSITIONS: units set to alat

     Current dimensions of program PWSCF are:
     Max number of different atomic species (ntypx) = 10
     Max number of k-points (npk) =  40000
     Max angular momentum in pseudopotentials (lmaxx) =  3

     Subspace diagonalization in iterative solution of the eigenvalue problem:
     a serial algorithm will be used


     Parallelization info
     --------------------
     sticks:   dense  smooth     PW     G-vecs:    dense   smooth      PW
     Min         433     214     66                11955     4215     722
     Max         434     215     67                11959     4218     724
     Sum        1735     859    265                47831    16865    2891



     bravais-lattice index     =            2
     lattice parameter (alat)  =      12.5650  a.u.
     unit-cell volume          =     495.9381 (a.u.)^3
     number of atoms/cell      =            2
     number of atomic types    =            1
     number of electrons       =        28.00
     number of Kohn-Sham states=           14
     kinetic-energy cutoff     =      40.0000  Ry
     charge density cutoff     =     320.0000  Ry
     convergence threshold     =      1.0E-08
     mixing beta               =       0.7000
     number of iterations used =            8  plain     mixing
     Exchange-correlation      =  SLA  PW   PBX  PBC ( 1  4  3  4 0 0)

     celldm(1)=  12.565000  celldm(2)=   0.000000  celldm(3)=   0.000000
     celldm(4)=   0.000000  celldm(5)=   0.000000  celldm(6)=   0.000000

     crystal axes: (cart. coord. in units of alat)
               a(1) = (  -0.500000   0.000000   0.500000 )  
               a(2) = (   0.000000   0.500000   0.500000 )  
               a(3) = (  -0.500000   0.500000   0.000000 )  

     reciprocal axes: (cart. coord. in units 2 pi/alat)
               b(1) = ( -1.000000 -1.000000  1.000000 )  
               b(2) = (  1.000000  1.000000  1.000000 )  
               b(3) = ( -1.000000  1.000000 -1.000000 )  


     PseudoPot. # 1 for Sn read from file:
     /home/s1333534/quantum_espresso/qe-6.1/pseudo/sn_pbe_v1.4.uspp.F.UPF
     MD5 check sum: 469debedee59599fedebd795477fea03
     Pseudo is Ultrasoft + core correction, Zval = 14.0
     Generated by new atomic code, or converted to UPF format
     Using radial grid of  891 points,  6 beta functions with: 
                l(1) =   0
                l(2) =   0
                l(3) =   1
                l(4) =   1
                l(5) =   2
                l(6) =   2
     Q(r) pseudized with  8 coefficients,  rinner =    1.350   1.350   1.350
                                                       1.350   1.350

     atomic species   valence    mass     pseudopotential
        Sn            14.00   118.71000     Sn( 1.00)

     24 Sym. Ops. (no inversion) found
          (note: 24 additional sym.ops. were found but ignored
           their fractional translations are incommensurate with FFT grid)


   Cartesian axes

     site n.     atom                  positions (alat units)
         1           Sn  tau(   1) = (   0.0000000   0.0000000   0.0000000  )
         2           Sn  tau(   2) = (   0.2500000   0.2500000   0.2500000  )

     number of k points=    60
                       cart. coord. in units 2pi/alat
        k(    1) = (  -0.0625000   0.0625000   0.0625000), wk =   0.0078125
        k(    2) = (  -0.1875000   0.1875000  -0.0625000), wk =   0.0234375
        k(    3) = (  -0.3125000   0.3125000  -0.1875000), wk =   0.0234375
        k(    4) = (  -0.4375000   0.4375000  -0.3125000), wk =   0.0234375
        k(    5) = (   0.4375000  -0.4375000   0.5625000), wk =   0.0234375
        k(    6) = (   0.3125000  -0.3125000   0.4375000), wk =   0.0234375
        k(    7) = (   0.1875000  -0.1875000   0.3125000), wk =   0.0234375
        k(    8) = (   0.0625000  -0.0625000   0.1875000), wk =   0.0234375
        k(    9) = (  -0.0625000   0.3125000   0.0625000), wk =   0.0234375
        k(   10) = (  -0.1875000   0.4375000  -0.0625000), wk =   0.0468750
        k(   11) = (  -0.3125000   0.5625000  -0.1875000), wk =   0.0468750
        k(   12) = (   0.5625000  -0.3125000   0.6875000), wk =   0.0468750
        k(   13) = (   0.4375000  -0.1875000   0.5625000), wk =   0.0468750
        k(   14) = (   0.3125000  -0.0625000   0.4375000), wk =   0.0468750
        k(   15) = (   0.1875000   0.0625000   0.3125000), wk =   0.0468750
        k(   16) = (  -0.0625000   0.5625000   0.0625000), wk =   0.0234375
        k(   17) = (  -0.1875000   0.6875000  -0.0625000), wk =   0.0468750
        k(   18) = (   0.6875000  -0.1875000   0.8125000), wk =   0.0468750
        k(   19) = (   0.5625000  -0.0625000   0.6875000), wk =   0.0468750
        k(   20) = (   0.4375000   0.0625000   0.5625000), wk =   0.0468750
        k(   21) = (   0.3125000   0.1875000   0.4375000), wk =   0.0468750
        k(   22) = (  -0.0625000   0.8125000   0.0625000), wk =   0.0234375
        k(   23) = (   0.8125000  -0.0625000   0.9375000), wk =   0.0468750
        k(   24) = (   0.6875000   0.0625000   0.8125000), wk =   0.0468750
        k(   25) = (   0.5625000   0.1875000   0.6875000), wk =   0.0468750
        k(   26) = (   0.4375000   0.3125000   0.5625000), wk =   0.0468750
        k(   27) = (  -0.0625000  -0.9375000   0.0625000), wk =   0.0234375
        k(   28) = (  -0.1875000  -0.8125000  -0.0625000), wk =   0.0468750
        k(   29) = (  -0.3125000  -0.6875000  -0.1875000), wk =   0.0468750
        k(   30) = (  -0.0625000  -0.6875000   0.0625000), wk =   0.0234375
        k(   31) = (  -0.1875000  -0.5625000  -0.0625000), wk =   0.0468750
        k(   32) = (  -0.0625000  -0.4375000   0.0625000), wk =   0.0234375
        k(   33) = (  -0.1875000   0.1875000   0.1875000), wk =   0.0078125
        k(   34) = (  -0.3125000   0.3125000   0.0625000), wk =   0.0234375
        k(   35) = (  -0.4375000   0.4375000  -0.0625000), wk =   0.0234375
        k(   36) = (   0.4375000  -0.4375000   0.8125000), wk =   0.0234375
        k(   37) = (   0.3125000  -0.3125000   0.6875000), wk =   0.0234375
        k(   38) = (   0.1875000  -0.1875000   0.5625000), wk =   0.0234375
        k(   39) = (  -0.1875000   0.4375000   0.1875000), wk =   0.0234375
        k(   40) = (  -0.3125000   0.5625000   0.0625000), wk =   0.0468750
        k(   41) = (   0.5625000  -0.3125000   0.9375000), wk =   0.0468750
        k(   42) = (   0.4375000  -0.1875000   0.8125000), wk =   0.0468750
        k(   43) = (   0.3125000  -0.0625000   0.6875000), wk =   0.0468750
        k(   44) = (  -0.1875000   0.6875000   0.1875000), wk =   0.0234375
        k(   45) = (   0.6875000  -0.1875000   1.0625000), wk =   0.0468750
        k(   46) = (   0.5625000  -0.0625000   0.9375000), wk =   0.0468750
        k(   47) = (   0.4375000   0.0625000   0.8125000), wk =   0.0468750
        k(   48) = (  -0.1875000  -1.0625000   0.1875000), wk =   0.0234375
        k(   49) = (  -0.3125000  -0.9375000   0.0625000), wk =   0.0468750
        k(   50) = (  -0.1875000  -0.8125000   0.1875000), wk =   0.0234375
        k(   51) = (  -0.3125000   0.3125000   0.3125000), wk =   0.0078125
        k(   52) = (  -0.4375000   0.4375000   0.1875000), wk =   0.0234375
        k(   53) = (   0.4375000  -0.4375000   1.0625000), wk =   0.0234375
        k(   54) = (   0.3125000  -0.3125000   0.9375000), wk =   0.0234375
        k(   55) = (  -0.3125000   0.5625000   0.3125000), wk =   0.0234375
        k(   56) = (   0.5625000  -0.3125000   1.1875000), wk =   0.0468750
        k(   57) = (   0.4375000  -0.1875000   1.0625000), wk =   0.0468750
        k(   58) = (  -0.3125000  -1.1875000   0.3125000), wk =   0.0234375
        k(   59) = (  -0.4375000   0.4375000   0.4375000), wk =   0.0078125
        k(   60) = (   0.4375000  -0.4375000   1.3125000), wk =   0.0234375

     Dense  grid:    47831 G-vectors     FFT dimensions: (  54,  54,  54)

     Smooth grid:    16865 G-vectors     FFT dimensions: (  36,  36,  36)

     Estimated max dynamical RAM per process >      15.73MB

     Estimated total allocated dynamical RAM >      62.90MB

     Initial potential from superposition of free atoms

     starting charge   25.99991, renormalised to   28.00000
     Starting wfc are   18 randomized atomic wfcs

     total cpu time spent up to now is        1.0 secs

     per-process dynamical memory:    20.5 Mb

     Self-consistent Calculation

     iteration #  1     ecut=    40.00 Ry     beta=0.70
     Davidson diagonalization with overlap
     ethr =  1.00E-02,  avg # of iterations =  2.5

     total cpu time spent up to now is        2.6 secs

     total energy              =    -317.47238091 Ry
     Harris-Foulkes estimate   =    -319.53567207 Ry
     estimated scf accuracy    <       2.51392851 Ry

     iteration #  2     ecut=    40.00 Ry     beta=0.70
     Davidson diagonalization with overlap
     ethr =  8.98E-03,  avg # of iterations =  3.0

     total cpu time spent up to now is        4.4 secs

     total energy              =    -318.38119155 Ry
     Harris-Foulkes estimate   =    -318.69982785 Ry
     estimated scf accuracy    <       0.47456474 Ry

     iteration #  3     ecut=    40.00 Ry     beta=0.70
     Davidson diagonalization with overlap
     ethr =  1.69E-03,  avg # of iterations =  2.0

     total cpu time spent up to now is        6.0 secs

     total energy              =    -318.47637751 Ry
     Harris-Foulkes estimate   =    -318.47795317 Ry
     estimated scf accuracy    <       0.00289776 Ry

     iteration #  4     ecut=    40.00 Ry     beta=0.70
     Davidson diagonalization with overlap
     ethr =  1.03E-05,  avg # of iterations =  3.0

     total cpu time spent up to now is        7.7 secs

     total energy              =    -318.47726357 Ry
     Harris-Foulkes estimate   =    -318.47738241 Ry
     estimated scf accuracy    <       0.00017496 Ry

     iteration #  5     ecut=    40.00 Ry     beta=0.70
     Davidson diagonalization with overlap
     ethr =  6.25E-07,  avg # of iterations =  3.0

     total cpu time spent up to now is        9.4 secs

     total energy              =    -318.47731777 Ry
     Harris-Foulkes estimate   =    -318.47731859 Ry
     estimated scf accuracy    <       0.00000162 Ry

     iteration #  6     ecut=    40.00 Ry     beta=0.70
     Davidson diagonalization with overlap
     ethr =  5.77E-09,  avg # of iterations =  3.9

     total cpu time spent up to now is       11.2 secs

     total energy              =    -318.47731854 Ry
     Harris-Foulkes estimate   =    -318.47731858 Ry
     estimated scf accuracy    <       0.00000006 Ry

     iteration #  7     ecut=    40.00 Ry     beta=0.70
     Davidson diagonalization with overlap
     ethr =  2.28E-10,  avg # of iterations =  3.2

     total cpu time spent up to now is       13.0 secs

     End of self-consistent calculation

          k =-0.0625 0.0625 0.0625 (  2097 PWs)   bands (ev):

   -14.6045 -14.6045 -14.6010 -14.5490 -14.5490 -14.3080 -14.3080 -14.2986
   -14.2867 -14.2867  -3.1494   5.4042   6.9666   6.9666

          k =-0.1875 0.1875-0.0625 (  2109 PWs)   bands (ev):

   -14.6164 -14.6115 -14.5977 -14.5380 -14.5312 -14.3311 -14.3219 -14.2964
   -14.2812 -14.2687  -2.9641   4.2334   6.2866   6.8291

          k =-0.3125 0.3125-0.1875 (  2106 PWs)   bands (ev):

   -14.6276 -14.6246 -14.5866 -14.5203 -14.5106 -14.3496 -14.3378 -14.3118
   -14.2640 -14.2566  -2.5238   2.6655   5.7933   6.4066

          k =-0.4375 0.4375-0.3125 (  2102 PWs)   bands (ev):

   -14.6332 -14.6328 -14.5759 -14.5072 -14.4998 -14.3571 -14.3478 -14.3270
   -14.2530 -14.2516  -1.9427   1.3642   5.5474   6.0478

          k = 0.4375-0.4375 0.5625 (  2109 PWs)   bands (ev):

   -14.6364 -14.6325 -14.5731 -14.5009 -14.5002 -14.3560 -14.3537 -14.3301
   -14.2525 -14.2486  -1.6854   0.9205   5.5471   5.8743

          k = 0.3125-0.3125 0.4375 (  2116 PWs)   bands (ev):

   -14.6338 -14.6282 -14.5802 -14.5103 -14.5017 -14.3591 -14.3438 -14.3201
   -14.2584 -14.2510  -2.1348   1.7396   5.7766   5.9239

          k = 0.1875-0.1875 0.3125 (  2109 PWs)   bands (ev):

   -14.6247 -14.6195 -14.5921 -14.5263 -14.5154 -14.3495 -14.3285 -14.3055
   -14.2694 -14.2604  -2.6948   3.1813   6.1934   6.1941

          k = 0.0625-0.0625 0.1875 (  2110 PWs)   bands (ev):

   -14.6105 -14.6077 -14.6016 -14.5447 -14.5365 -14.3292 -14.3084 -14.2952
   -14.2860 -14.2753  -3.0561   4.7468   6.6212   6.6541

          k =-0.0625 0.3125 0.0625 (  2105 PWs)   bands (ev):

   -14.6170 -14.6135 -14.6032 -14.5358 -14.5159 -14.3562 -14.3141 -14.2882
   -14.2805 -14.2686  -2.8702   3.9442   6.1511   6.1664

          k =-0.1875 0.4375-0.0625 (  2107 PWs)   bands (ev):

   -14.6299 -14.6249 -14.5905 -14.5197 -14.4922 -14.3813 -14.3309 -14.2989
   -14.2657 -14.2552  -2.5096   2.8376   5.3799   5.9284

          k =-0.3125 0.5625-0.1875 (  2115 PWs)   bands (ev):

   -14.6440 -14.6336 -14.5683 -14.5019 -14.4782 -14.3921 -14.3498 -14.3245
   -14.2522 -14.2404  -1.9481   1.5973   4.8725   5.6283

          k = 0.5625-0.3125 0.6875 (  2120 PWs)   bands (ev):

   -14.6505 -14.6380 -14.5529 -14.4885 -14.4812 -14.3827 -14.3670 -14.3430
   -14.2457 -14.2335  -1.4912   0.8365   4.6110   5.5615

          k = 0.4375-0.1875 0.5625 (  2113 PWs)   bands (ev):

   -14.6469 -14.6380 -14.5561 -14.4998 -14.4799 -14.3819 -14.3542 -14.3437
   -14.2455 -14.2381  -1.7597   1.2628   4.6147   5.7685

          k = 0.3125-0.0625 0.4375 (  2112 PWs)   bands (ev):

   -14.6346 -14.6322 -14.5757 -14.5158 -14.4919 -14.3744 -14.3399 -14.3176
   -14.2565 -14.2492  -2.3439   2.4061   4.9711   6.1561

          k = 0.1875 0.0625 0.3125 (  2105 PWs)   bands (ev):

   -14.6230 -14.6175 -14.5946 -14.5308 -14.5149 -14.3530 -14.3243 -14.2971
   -14.2754 -14.2614  -2.7813   3.5554   5.8255   6.4489

          k =-0.0625 0.5625 0.0625 (  2110 PWs)   bands (ev):

   -14.6318 -14.6291 -14.5946 -14.5046 -14.4618 -14.4187 -14.3430 -14.2883
   -14.2593 -14.2554  -2.2285   2.3002   5.2622   5.3505

          k =-0.1875 0.6875-0.0625 (  2112 PWs)   bands (ev):

   -14.6441 -14.6388 -14.5704 -14.4838 -14.4441 -14.4371 -14.3644 -14.3147
   -14.2458 -14.2400  -1.7147   1.3922   4.6980   5.0890

          k = 0.6875-0.1875 0.8125 (  2126 PWs)   bands (ev):

   -14.6582 -14.6435 -14.5402 -14.4638 -14.4469 -14.4313 -14.3876 -14.3464
   -14.2389 -14.2242  -1.1416   0.5928   4.1215   5.0582

          k = 0.5625-0.0625 0.6875 (  2126 PWs)   bands (ev):

   -14.6607 -14.6447 -14.5318 -14.4689 -14.4507 -14.4143 -14.3951 -14.3561
   -14.2371 -14.2222  -1.2057   0.6743   3.9087   5.3111

          k = 0.4375 0.0625 0.5625 (  2114 PWs)   bands (ev):

   -14.6497 -14.6408 -14.5493 -14.4991 -14.4701 -14.3928 -14.3554 -14.3496
   -14.2417 -14.2356  -1.7880   1.4303   4.2885   5.7449

          k = 0.3125 0.1875 0.4375 (  2115 PWs)   bands (ev):

   -14.6350 -14.6290 -14.5786 -14.5138 -14.4967 -14.3678 -14.3405 -14.3177
   -14.2586 -14.2496  -2.2724   2.1263   5.3371   6.0626

          k =-0.0625 0.8125 0.0625 (  2124 PWs)   bands (ev):

   -14.6438 -14.6414 -14.5640 -14.4837 -14.4604 -14.4012 -14.3862 -14.3204
   -14.2412 -14.2388  -1.2506   0.7379   4.7306   4.8560

          k = 0.8125-0.0625 0.9375 (  2127 PWs)   bands (ev):

   -14.6520 -14.6465 -14.5321 -14.5018 -14.4365 -14.4111 -14.3825 -14.3529
   -14.2348 -14.2295  -0.6315   0.0199   4.3885   4.7075

          k = 0.6875 0.0625 0.8125 (  2128 PWs)   bands (ev):

   -14.6614 -14.6462 -14.5277 -14.4612 -14.4422 -14.4196 -14.4088 -14.3574
   -14.2353 -14.2204  -0.7632   0.1843   3.9458   4.9459

          k = 0.5625 0.1875 0.6875 (  2123 PWs)   bands (ev):

   -14.6572 -14.6421 -14.5401 -14.4769 -14.4656 -14.4003 -14.3824 -14.3509
   -14.2405 -14.2261  -1.3076   0.7168   4.1687   5.3948

          k = 0.4375 0.3125 0.5625 (  2114 PWs)   bands (ev):

   -14.6417 -14.6343 -14.5659 -14.5005 -14.4922 -14.3671 -14.3538 -14.3352
   -14.2504 -14.2431  -1.7173   1.0545   5.1164   5.8089

          k =-0.0625-0.9375 0.0625 (  2119 PWs)   bands (ev):

   -14.6465 -14.6442 -14.5413 -14.5136 -14.4358 -14.4107 -14.3718 -14.3440
   -14.2371 -14.2348  -0.6499   0.0178   4.6219   4.7544

          k =-0.1875-0.8125-0.0625 (  2124 PWs)   bands (ev):

   -14.6492 -14.6438 -14.5531 -14.4741 -14.4609 -14.4092 -14.3869 -14.3318
   -14.2387 -14.2333  -1.2035   0.6891   4.4928   4.8355

          k =-0.3125-0.6875-0.1875 (  2113 PWs)   bands (ev):

   -14.6522 -14.6389 -14.5552 -14.4846 -14.4580 -14.4169 -14.3666 -14.3339
   -14.2451 -14.2313  -1.5630   1.0843   4.4471   5.2852

          k =-0.0625-0.6875 0.0625 (  2105 PWs)   bands (ev):

   -14.6387 -14.6362 -14.5820 -14.4837 -14.4516 -14.4316 -14.3633 -14.3013
   -14.2490 -14.2462  -1.7791   1.5026   4.9457   5.0566

          k =-0.1875-0.5625-0.0625 (  2109 PWs)   bands (ev):

   -14.6373 -14.6323 -14.5829 -14.5038 -14.4660 -14.4119 -14.3451 -14.3037
   -14.2551 -14.2481  -2.1524   2.1123   4.9973   5.4598

          k =-0.0625-0.4375 0.0625 (  2107 PWs)   bands (ev):

   -14.6242 -14.6211 -14.6016 -14.5222 -14.4903 -14.3864 -14.3262 -14.2837
   -14.2706 -14.2636  -2.5934   3.1189   5.6706   5.7272

          k =-0.1875 0.1875 0.1875 (  2106 PWs)   bands (ev):

   -14.6171 -14.6171 -14.5951 -14.5302 -14.5302 -14.3290 -14.3290 -14.3058
   -14.2696 -14.2696  -2.8739   3.7834   6.5695   6.5695

          k =-0.3125 0.3125 0.0625 (  2112 PWs)   bands (ev):

   -14.6286 -14.6247 -14.5849 -14.5241 -14.5079 -14.3541 -14.3375 -14.3068
   -14.2670 -14.2548  -2.6049   3.0035   5.3869   6.5379

          k =-0.4375 0.4375-0.0625 (  2114 PWs)   bands (ev):

   -14.6417 -14.6372 -14.5613 -14.5103 -14.4844 -14.3751 -14.3483 -14.3366
   -14.2457 -14.2453  -2.1010   1.9228   4.5892   6.1193

          k = 0.4375-0.4375 0.8125 (  2116 PWs)   bands (ev):

   -14.6523 -14.6398 -14.5472 -14.4908 -14.4758 -14.3798 -14.3728 -14.3494
   -14.2429 -14.2320  -1.5364   0.9596   4.3627   5.6980

          k = 0.3125-0.3125 0.6875 (  2112 PWs)   bands (ev):

   -14.6521 -14.6369 -14.5554 -14.4855 -14.4726 -14.3989 -14.3666 -14.3362
   -14.2471 -14.2315  -1.5220   0.9368   4.5416   5.4610

          k = 0.1875-0.1875 0.5625 (  2116 PWs)   bands (ev):

   -14.6415 -14.6304 -14.5785 -14.5029 -14.4717 -14.4040 -14.3468 -14.3099
   -14.2569 -14.2432  -2.0826   1.9100   5.0276   5.4703

          k =-0.1875 0.4375 0.1875 (  2117 PWs)   bands (ev):

   -14.6330 -14.6241 -14.5871 -14.5174 -14.4952 -14.3756 -14.3340 -14.3051
   -14.2650 -14.2520  -2.4295   2.5474   5.5843   5.8102

          k =-0.3125 0.5625 0.0625 (  2115 PWs)   bands (ev):

   -14.6427 -14.6379 -14.5657 -14.5025 -14.4704 -14.4015 -14.3488 -14.3262
   -14.2471 -14.2424  -2.0034   1.7996   4.6280   5.6312

          k = 0.5625-0.3125 0.9375 (  2124 PWs)   bands (ev):

   -14.6558 -14.6454 -14.5371 -14.4821 -14.4510 -14.4178 -14.3747 -14.3535
   -14.2370 -14.2277  -1.4159   0.9430   4.0955   5.2422

          k = 0.4375-0.1875 0.8125 (  2123 PWs)   bands (ev):

   -14.6594 -14.6464 -14.5305 -14.4683 -14.4472 -14.4246 -14.3888 -14.3569
   -14.2359 -14.2231  -1.1139   0.5497   4.0576   5.0279

          k = 0.3125-0.0625 0.6875 (  2118 PWs)   bands (ev):

   -14.6498 -14.6434 -14.5529 -14.4841 -14.4465 -14.4298 -14.3668 -14.3354
   -14.2400 -14.2341  -1.5904   1.1939   4.3790   5.1480

          k =-0.1875 0.6875 0.1875 (  2117 PWs)   bands (ev):

   -14.6491 -14.6367 -14.5656 -14.4839 -14.4479 -14.4314 -14.3652 -14.3208
   -14.2480 -14.2346  -1.6614   1.2749   4.5803   5.2004

          k = 0.6875-0.1875 1.0625 (  2127 PWs)   bands (ev):

   -14.6547 -14.6483 -14.5361 -14.4626 -14.4587 -14.4205 -14.3888 -14.3495
   -14.2340 -14.2277  -1.1158   0.5947   4.2323   4.7766

          k = 0.5625-0.0625 0.9375 (  2146 PWs)   bands (ev):

   -14.6600 -14.6546 -14.5037 -14.4692 -14.4416 -14.4168 -14.4073 -14.3781
   -14.2270 -14.2216  -0.5840   0.0224   4.0596   4.4566

          k = 0.4375 0.0625 0.8125 (  2132 PWs)   bands (ev):

   -14.6592 -14.6506 -14.5215 -14.4626 -14.4449 -14.4288 -14.3949 -14.3638
   -14.2314 -14.2230  -1.0009   0.4653   4.0237   4.7789

          k =-0.1875-1.0625 0.1875 (  2122 PWs)   bands (ev):

   -14.6577 -14.6444 -14.5333 -14.4838 -14.4382 -14.4103 -14.3992 -14.3521
   -14.2369 -14.2239  -0.6776   0.0783   4.1125   4.9197

          k =-0.3125-0.9375 0.0625 (  2134 PWs)   bands (ev):

   -14.6571 -14.6512 -14.5170 -14.4841 -14.4385 -14.4127 -14.3975 -14.3669
   -14.2303 -14.2245  -0.6042   0.0218   4.1774   4.5645

          k =-0.1875-0.8125 0.1875 (  2123 PWs)   bands (ev):

   -14.6547 -14.6417 -14.5493 -14.4623 -14.4616 -14.4195 -14.3871 -14.3363
   -14.2409 -14.2277  -1.1787   0.6505   4.2704   5.0144

          k =-0.3125 0.3125 0.3125 (  2120 PWs)   bands (ev):

   -14.6270 -14.6270 -14.5862 -14.5127 -14.5127 -14.3443 -14.3443 -14.3164
   -14.2588 -14.2588  -2.3648   2.2042   6.1840   6.1840

          k =-0.4375 0.4375 0.1875 (  2117 PWs)   bands (ev):

   -14.6383 -14.6354 -14.5674 -14.5093 -14.4914 -14.3672 -14.3468 -14.3334
   -14.2488 -14.2478  -2.0452   1.6832   4.9705   6.0968

          k = 0.4375-0.4375 1.0625 (  2127 PWs)   bands (ev):

   -14.6564 -14.6421 -14.5392 -14.4871 -14.4635 -14.3925 -14.3811 -14.3532
   -14.2398 -14.2276  -1.5170   1.0480   4.0382   5.6544

          k = 0.3125-0.3125 0.9375 (  2128 PWs)   bands (ev):

   -14.6627 -14.6441 -14.5321 -14.4474 -14.4462 -14.4323 -14.4047 -14.3543
   -14.2375 -14.2195  -0.9796   0.4145   3.8531   5.2327

          k =-0.3125 0.5625 0.3125 (  2115 PWs)   bands (ev):

   -14.6431 -14.6319 -14.5692 -14.5010 -14.4879 -14.3783 -14.3515 -14.3265
   -14.2539 -14.2412  -1.8464   1.3129   5.1290   5.6723

          k = 0.5625-0.3125 1.1875 (  2125 PWs)   bands (ev):

   -14.6543 -14.6420 -14.5439 -14.4848 -14.4646 -14.4030 -14.3710 -14.3485
   -14.2411 -14.2292  -1.4365   0.8808   4.3021   5.3539

          k = 0.4375-0.1875 1.0625 (  2131 PWs)   bands (ev):

   -14.6618 -14.6493 -14.5199 -14.4546 -14.4420 -14.4308 -14.4050 -14.3646
   -14.2324 -14.2202  -0.8767   0.3206   3.9180   4.8571

          k =-0.3125-1.1875 0.3125 (  2123 PWs)   bands (ev):

   -14.6590 -14.6415 -14.5416 -14.4660 -14.4578 -14.4180 -14.3861 -14.3468
   -14.2410 -14.2238  -1.2041   0.6221   4.0957   5.3106

          k =-0.4375 0.4375 0.4375 (  2111 PWs)   bands (ev):

   -14.6313 -14.6313 -14.5796 -14.5041 -14.5041 -14.3511 -14.3511 -14.3243
   -14.2539 -14.2539  -1.8131   1.0882   5.9707   5.9707

          k = 0.4375-0.4375 1.3125 (  2112 PWs)   bands (ev):

   -14.6449 -14.6359 -14.5602 -14.4956 -14.4904 -14.3646 -14.3630 -14.3409
   -14.2479 -14.2399  -1.5891   0.8867   4.9075   5.7766

     highest occupied level (ev):     6.9666

!    total energy              =    -318.47731857 Ry
     Harris-Foulkes estimate   =    -318.47731858 Ry
     estimated scf accuracy    <          2.5E-09 Ry

     The total energy is the sum of the following terms:

     one-electron contribution =    -161.98472596 Ry
     hartree contribution      =      97.53011612 Ry
     xc contribution           =     -85.96661377 Ry
     ewald contribution        =    -168.05609497 Ry

     convergence has been achieved in   7 iterations


     Computing stress (Cartesian axis) and pressure

          total   stress  (Ry/bohr**3)                   (kbar)     P=   -1.12
  -0.00000763   0.00000000  -0.00000000         -1.12      0.00     -0.00
   0.00000000  -0.00000763   0.00000000          0.00     -1.12      0.00
   0.00000000   0.00000000  -0.00000763          0.00      0.00     -1.12


     Writing output data file sn.alpha.40.save

     init_run     :      0.88s CPU      0.91s WALL (       1 calls)
     electrons    :     11.68s CPU     12.07s WALL (       1 calls)
     stress       :      0.69s CPU      0.70s WALL (       1 calls)

     Called by init_run:
     wfcinit      :      0.51s CPU      0.53s WALL (       1 calls)
     potinit      :      0.05s CPU      0.05s WALL (       1 calls)

     Called by electrons:
     c_bands      :      9.36s CPU      9.66s WALL (       7 calls)
     sum_band     :      1.75s CPU      1.80s WALL (       7 calls)
     v_of_rho     :      0.26s CPU      0.27s WALL (       8 calls)
     newd         :      0.35s CPU      0.36s WALL (       8 calls)
     mix_rho      :      0.02s CPU      0.02s WALL (       7 calls)

     Called by c_bands:
     init_us_2    :      0.27s CPU      0.27s WALL (     960 calls)
     cegterg      :      8.86s CPU      9.15s WALL (     420 calls)

     Called by sum_band:
     sum_band:bec :      0.00s CPU      0.00s WALL (     420 calls)
     addusdens    :      0.42s CPU      0.43s WALL (       7 calls)

     Called by *egterg:
     h_psi        :      7.35s CPU      7.63s WALL (    1715 calls)
     s_psi        :      0.15s CPU      0.15s WALL (    1715 calls)
     g_psi        :      0.05s CPU      0.06s WALL (    1235 calls)
     cdiaghg      :      0.72s CPU      0.73s WALL (    1655 calls)

     Called by h_psi:
     h_psi:pot    :      7.30s CPU      7.56s WALL (    1715 calls)
     h_psi:calbec :      0.32s CPU      0.33s WALL (    1715 calls)
     vloc_psi     :      6.78s CPU      7.03s WALL (    1715 calls)
     add_vuspsi   :      0.19s CPU      0.19s WALL (    1715 calls)

     General routines
     calbec       :      0.40s CPU      0.41s WALL (    2195 calls)
     fft          :      0.13s CPU      0.13s WALL (     138 calls)
     ffts         :      0.01s CPU      0.01s WALL (      15 calls)
     fftw         :      6.45s CPU      6.61s WALL (   45602 calls)
     interpolate  :      0.03s CPU      0.03s WALL (      15 calls)
     davcio       :      0.00s CPU      0.00s WALL (      60 calls)

     Parallel routines
     fft_scatter  :      1.18s CPU      1.23s WALL (   45755 calls)

     PWSCF        :    13.41s CPU        14.88s WALL


   This run was terminated on:  12:59:37  12Nov2017            

=------------------------------------------------------------------------------=
   JOB DONE.
=------------------------------------------------------------------------------=
