
     Program PWSCF v.6.1 (svn rev. 13369) starts on 13Nov2017 at  2: 9:36 

     This program is part of the open-source Quantum ESPRESSO suite
     for quantum simulation of materials; please cite
         "P. Giannozzi et al., J. Phys.:Condens. Matter 21 395502 (2009);
          URL http://www.quantum-espresso.org", 
     in publications or presentations arising from this work. More details at
     http://www.quantum-espresso.org/quote

     Parallel version (MPI), running on     4 processors
     R & G space division:  proc/nbgrp/npool/nimage =       4
     Waiting for input...
     Reading input from standard input

     Current dimensions of program PWSCF are:
     Max number of different atomic species (ntypx) = 10
     Max number of k-points (npk) =  40000
     Max angular momentum in pseudopotentials (lmaxx) =  3

     Subspace diagonalization in iterative solution of the eigenvalue problem:
     a serial algorithm will be used


     Parallelization info
     --------------------
     sticks:   dense  smooth     PW     G-vecs:    dense   smooth      PW
     Min        1216     482    198                17251     4372    1112
     Max        1217     484    199                17252     4373    1113
     Sum        4865    1933    793                69005    17489    4449



     bravais-lattice index     =            0
     lattice parameter (alat)  =      11.2100  a.u.
     unit-cell volume          =     366.0283 (a.u.)^3
     number of atoms/cell      =            2
     number of atomic types    =            1
     number of electrons       =        28.00
     number of Kohn-Sham states=           18
     kinetic-energy cutoff     =      50.0000  Ry
     charge density cutoff     =     500.0000  Ry
     convergence threshold     =      1.0E-08
     mixing beta               =       0.7000
     number of iterations used =            8  plain     mixing
     Exchange-correlation      =  SLA  PW   PBX  PBC ( 1  4  3  4 0 0)

     celldm(1)=  11.210000  celldm(2)=   0.000000  celldm(3)=   0.000000
     celldm(4)=   0.000000  celldm(5)=   0.000000  celldm(6)=   0.000000

     crystal axes: (cart. coord. in units of alat)
               a(1) = (   0.986837   0.000000   0.000000 )  
               a(2) = (   0.000000   0.986837   0.000000 )  
               a(3) = (   0.493419   0.493419   0.266813 )  

     reciprocal axes: (cart. coord. in units 2 pi/alat)
               b(1) = (  1.013339  0.000000 -1.873974 )  
               b(2) = (  0.000000  1.013339 -1.873974 )  
               b(3) = (  0.000000  0.000000  3.747943 )  


     PseudoPot. # 1 for Sn read from file:
     /home/s1333534/quantum_espresso/qe-6.1/pseudo/sn_pbe_v1.4.uspp.F.UPF
     MD5 check sum: 469debedee59599fedebd795477fea03
     Pseudo is Ultrasoft + core correction, Zval = 14.0
     Generated by new atomic code, or converted to UPF format
     Using radial grid of  891 points,  6 beta functions with: 
                l(1) =   0
                l(2) =   0
                l(3) =   1
                l(4) =   1
                l(5) =   2
                l(6) =   2
     Q(r) pseudized with  8 coefficients,  rinner =    1.350   1.350   1.350
                                                       1.350   1.350

     atomic species   valence    mass     pseudopotential
        Sn            14.00   118.71000     Sn( 1.00)

     No symmetry found



   Cartesian axes

     site n.     atom                  positions (alat units)
         1           Sn  tau(   1) = (   1.0725850   1.3160481   0.0533919  )
         2           Sn  tau(   2) = (   0.5198369   0.2763739   0.0177973  )

     number of k points=   448  Marzari-Vanderbilt smearing, width (Ry)=  0.0200

     Number of k-points >= 100: set verbosity='high' to print them.

     Dense  grid:    69005 G-vectors     FFT dimensions: (  80,  80,  60)

     Smooth grid:    17489 G-vectors     FFT dimensions: (  50,  50,  40)

     Estimated max dynamical RAM per process >      82.40MB

     Estimated total allocated dynamical RAM >     329.62MB

     Initial potential from superposition of free atoms

     starting charge   25.99991, renormalised to   28.00000
     Starting wfc are   18 randomized atomic wfcs

     total cpu time spent up to now is       12.3 secs

     per-process dynamical memory:    87.7 Mb

     Self-consistent Calculation

     iteration #  1     ecut=    50.00 Ry     beta=0.70
     Davidson diagonalization with overlap
     ethr =  1.00E-02,  avg # of iterations =  4.0

     total cpu time spent up to now is       58.0 secs

     total energy              =    -317.50255013 Ry
     Harris-Foulkes estimate   =    -319.46408792 Ry
     estimated scf accuracy    <       2.40198348 Ry

     iteration #  2     ecut=    50.00 Ry     beta=0.70
     Davidson diagonalization with overlap
     ethr =  8.58E-03,  avg # of iterations =  2.6

     total cpu time spent up to now is       97.5 secs

     total energy              =    -318.35180718 Ry
     Harris-Foulkes estimate   =    -318.64959933 Ry
     estimated scf accuracy    <       0.43809588 Ry

     iteration #  3     ecut=    50.00 Ry     beta=0.70
     Davidson diagonalization with overlap
     ethr =  1.56E-03,  avg # of iterations =  2.0

     total cpu time spent up to now is      136.2 secs

     total energy              =    -318.44261008 Ry
     Harris-Foulkes estimate   =    -318.44431856 Ry
     estimated scf accuracy    <       0.00289293 Ry

     iteration #  4     ecut=    50.00 Ry     beta=0.70
     Davidson diagonalization with overlap
     ethr =  1.03E-05,  avg # of iterations =  3.6

     total cpu time spent up to now is      178.4 secs

     total energy              =    -318.44322147 Ry
     Harris-Foulkes estimate   =    -318.44338232 Ry
     estimated scf accuracy    <       0.00032062 Ry

     iteration #  5     ecut=    50.00 Ry     beta=0.70
     Davidson diagonalization with overlap
     ethr =  1.15E-06,  avg # of iterations =  2.6

     total cpu time spent up to now is      211.2 secs

     total energy              =    -318.44327214 Ry
     Harris-Foulkes estimate   =    -318.44328242 Ry
     estimated scf accuracy    <       0.00001771 Ry

     iteration #  6     ecut=    50.00 Ry     beta=0.70
     Davidson diagonalization with overlap
     ethr =  6.32E-08,  avg # of iterations =  3.0

     total cpu time spent up to now is      252.8 secs

     total energy              =    -318.44327890 Ry
     Harris-Foulkes estimate   =    -318.44327930 Ry
     estimated scf accuracy    <       0.00000086 Ry

     iteration #  7     ecut=    50.00 Ry     beta=0.70
     Davidson diagonalization with overlap
     ethr =  3.08E-09,  avg # of iterations =  2.8

     total cpu time spent up to now is      289.8 secs

     total energy              =    -318.44327902 Ry
     Harris-Foulkes estimate   =    -318.44327914 Ry
     estimated scf accuracy    <       0.00000017 Ry

     iteration #  8     ecut=    50.00 Ry     beta=0.70
     Davidson diagonalization with overlap
     ethr =  6.17E-10,  avg # of iterations =  3.0

     total cpu time spent up to now is      331.1 secs

     End of self-consistent calculation

     Number of k-points >= 100: set verbosity='high' to print the bands.

     the Fermi energy is    10.7537 ev

!    total energy              =    -318.44327908 Ry
     Harris-Foulkes estimate   =    -318.44327909 Ry
     estimated scf accuracy    <          6.4E-09 Ry

     The total energy is the sum of the following terms:

     one-electron contribution =    -116.11594931 Ry
     hartree contribution      =      78.44444206 Ry
     xc contribution           =     -86.07527651 Ry
     ewald contribution        =    -194.69658470 Ry
     smearing contrib. (-TS)   =       0.00008937 Ry

     convergence has been achieved in   8 iterations

     Writing output data file sn.beta.11.21.save

     init_run     :     11.85s CPU     12.19s WALL (       1 calls)
     electrons    :    311.55s CPU    318.87s WALL (       1 calls)

     Called by init_run:
     wfcinit      :     10.78s CPU     11.09s WALL (       1 calls)
     potinit      :      0.29s CPU      0.30s WALL (       1 calls)

     Called by electrons:
     c_bands      :    254.58s CPU    260.63s WALL (       8 calls)
     sum_band     :     55.27s CPU     56.37s WALL (       8 calls)
     v_of_rho     :      0.87s CPU      0.91s WALL (       9 calls)
     newd         :      0.87s CPU      0.93s WALL (       9 calls)
     mix_rho      :      0.08s CPU      0.09s WALL (       8 calls)

     Called by c_bands:
     init_us_2    :      2.16s CPU      2.24s WALL (    7616 calls)
     cegterg      :    250.14s CPU    256.05s WALL (    3584 calls)

     Called by sum_band:
     sum_band:bec :      0.04s CPU      0.05s WALL (    3584 calls)
     addusdens    :      1.01s CPU      1.10s WALL (       8 calls)

     Called by *egterg:
     h_psi        :    237.15s CPU    242.98s WALL (   14556 calls)
     s_psi        :      1.56s CPU      1.58s WALL (   14556 calls)
     g_psi        :      0.51s CPU      0.52s WALL (   10524 calls)
     cdiaghg      :      9.10s CPU      9.23s WALL (   14108 calls)

     Called by h_psi:
     h_psi:pot    :    236.31s CPU    242.12s WALL (   14556 calls)
     h_psi:calbec :      3.78s CPU      3.83s WALL (   14556 calls)
     vloc_psi     :    230.45s CPU    236.14s WALL (   14556 calls)
     add_vuspsi   :      2.08s CPU      2.10s WALL (   14556 calls)

     General routines
     calbec       :      4.93s CPU      4.97s WALL (   18140 calls)
     fft          :      0.62s CPU      0.67s WALL (     140 calls)
     ffts         :      0.01s CPU      0.01s WALL (      17 calls)
     fftw         :    184.87s CPU    189.45s WALL (  448376 calls)
     interpolate  :      0.10s CPU      0.11s WALL (      17 calls)
     davcio       :      0.01s CPU      0.02s WALL (     448 calls)

     Parallel routines
     fft_scatter  :     34.32s CPU     35.43s WALL (  448533 calls)

     PWSCF        :  5m24.23s CPU     5m39.19s WALL


   This run was terminated on:   2:15:15  13Nov2017            

=------------------------------------------------------------------------------=
   JOB DONE.
=------------------------------------------------------------------------------=
