
     Program PWSCF v.6.1 (svn rev. 13369) starts on 11Nov2017 at 15:30:44 

     This program is part of the open-source Quantum ESPRESSO suite
     for quantum simulation of materials; please cite
         "P. Giannozzi et al., J. Phys.:Condens. Matter 21 395502 (2009);
          URL http://www.quantum-espresso.org", 
     in publications or presentations arising from this work. More details at
     http://www.quantum-espresso.org/quote

     Parallel version (MPI), running on     4 processors
     R & G space division:  proc/nbgrp/npool/nimage =       4
     Waiting for input...
     Reading input from standard input
     Message from routine read_cards :
     DEPRECATED: no units specified in ATOMIC_POSITIONS card
     Message from routine read_cards :
     ATOMIC_POSITIONS: units set to alat

     Current dimensions of program PWSCF are:
     Max number of different atomic species (ntypx) = 10
     Max number of k-points (npk) =  40000
     Max angular momentum in pseudopotentials (lmaxx) =  3

     Subspace diagonalization in iterative solution of the eigenvalue problem:
     a serial algorithm will be used


     Parallelization info
     --------------------
     sticks:   dense  smooth     PW     G-vecs:    dense   smooth      PW
     Min         382     192     63                 9987     3551     641
     Max         383     193     64                 9991     3554     642
     Sum        1531     769    253                39957    14211    2565



     bravais-lattice index     =            2
     lattice parameter (alat)  =      10.6000  a.u.
     unit-cell volume          =     297.7540 (a.u.)^3
     number of atoms/cell      =            2
     number of atomic types    =            1
     number of electrons       =        28.00
     number of Kohn-Sham states=           14
     kinetic-energy cutoff     =      50.0000  Ry
     charge density cutoff     =     400.0000  Ry
     convergence threshold     =      1.0E-08
     mixing beta               =       0.7000
     number of iterations used =            8  plain     mixing
     Exchange-correlation      =  SLA  PW   PBX  PBC ( 1  4  3  4 0 0)

     celldm(1)=  10.600000  celldm(2)=   0.000000  celldm(3)=   0.000000
     celldm(4)=   0.000000  celldm(5)=   0.000000  celldm(6)=   0.000000

     crystal axes: (cart. coord. in units of alat)
               a(1) = (  -0.500000   0.000000   0.500000 )  
               a(2) = (   0.000000   0.500000   0.500000 )  
               a(3) = (  -0.500000   0.500000   0.000000 )  

     reciprocal axes: (cart. coord. in units 2 pi/alat)
               b(1) = ( -1.000000 -1.000000  1.000000 )  
               b(2) = (  1.000000  1.000000  1.000000 )  
               b(3) = ( -1.000000  1.000000 -1.000000 )  


     PseudoPot. # 1 for Sn read from file:
     /home/s1333534/quantum_espresso/qe-6.1/pseudo/sn_pbe_v1.4.uspp.F.UPF
     MD5 check sum: 469debedee59599fedebd795477fea03
     Pseudo is Ultrasoft + core correction, Zval = 14.0
     Generated by new atomic code, or converted to UPF format
     Using radial grid of  891 points,  6 beta functions with: 
                l(1) =   0
                l(2) =   0
                l(3) =   1
                l(4) =   1
                l(5) =   2
                l(6) =   2
     Q(r) pseudized with  8 coefficients,  rinner =    1.350   1.350   1.350
                                                       1.350   1.350

     atomic species   valence    mass     pseudopotential
        Sn            14.00   118.71000     Sn( 1.00)

     48 Sym. Ops., with inversion, found (24 have fractional translation)



   Cartesian axes

     site n.     atom                  positions (alat units)
         1           Sn  tau(   1) = (   0.0000000   0.0000000   0.0000000  )
         2           Sn  tau(   2) = (   0.2500000   0.2500000   0.2500000  )

     number of k points=    60
                       cart. coord. in units 2pi/alat
        k(    1) = (  -0.0625000   0.0625000   0.0625000), wk =   0.0078125
        k(    2) = (  -0.1875000   0.1875000  -0.0625000), wk =   0.0234375
        k(    3) = (  -0.3125000   0.3125000  -0.1875000), wk =   0.0234375
        k(    4) = (  -0.4375000   0.4375000  -0.3125000), wk =   0.0234375
        k(    5) = (   0.4375000  -0.4375000   0.5625000), wk =   0.0234375
        k(    6) = (   0.3125000  -0.3125000   0.4375000), wk =   0.0234375
        k(    7) = (   0.1875000  -0.1875000   0.3125000), wk =   0.0234375
        k(    8) = (   0.0625000  -0.0625000   0.1875000), wk =   0.0234375
        k(    9) = (  -0.0625000   0.3125000   0.0625000), wk =   0.0234375
        k(   10) = (  -0.1875000   0.4375000  -0.0625000), wk =   0.0468750
        k(   11) = (  -0.3125000   0.5625000  -0.1875000), wk =   0.0468750
        k(   12) = (   0.5625000  -0.3125000   0.6875000), wk =   0.0468750
        k(   13) = (   0.4375000  -0.1875000   0.5625000), wk =   0.0468750
        k(   14) = (   0.3125000  -0.0625000   0.4375000), wk =   0.0468750
        k(   15) = (   0.1875000   0.0625000   0.3125000), wk =   0.0468750
        k(   16) = (  -0.0625000   0.5625000   0.0625000), wk =   0.0234375
        k(   17) = (  -0.1875000   0.6875000  -0.0625000), wk =   0.0468750
        k(   18) = (   0.6875000  -0.1875000   0.8125000), wk =   0.0468750
        k(   19) = (   0.5625000  -0.0625000   0.6875000), wk =   0.0468750
        k(   20) = (   0.4375000   0.0625000   0.5625000), wk =   0.0468750
        k(   21) = (   0.3125000   0.1875000   0.4375000), wk =   0.0468750
        k(   22) = (  -0.0625000   0.8125000   0.0625000), wk =   0.0234375
        k(   23) = (   0.8125000  -0.0625000   0.9375000), wk =   0.0468750
        k(   24) = (   0.6875000   0.0625000   0.8125000), wk =   0.0468750
        k(   25) = (   0.5625000   0.1875000   0.6875000), wk =   0.0468750
        k(   26) = (   0.4375000   0.3125000   0.5625000), wk =   0.0468750
        k(   27) = (  -0.0625000  -0.9375000   0.0625000), wk =   0.0234375
        k(   28) = (  -0.1875000  -0.8125000  -0.0625000), wk =   0.0468750
        k(   29) = (  -0.3125000  -0.6875000  -0.1875000), wk =   0.0468750
        k(   30) = (  -0.0625000  -0.6875000   0.0625000), wk =   0.0234375
        k(   31) = (  -0.1875000  -0.5625000  -0.0625000), wk =   0.0468750
        k(   32) = (  -0.0625000  -0.4375000   0.0625000), wk =   0.0234375
        k(   33) = (  -0.1875000   0.1875000   0.1875000), wk =   0.0078125
        k(   34) = (  -0.3125000   0.3125000   0.0625000), wk =   0.0234375
        k(   35) = (  -0.4375000   0.4375000  -0.0625000), wk =   0.0234375
        k(   36) = (   0.4375000  -0.4375000   0.8125000), wk =   0.0234375
        k(   37) = (   0.3125000  -0.3125000   0.6875000), wk =   0.0234375
        k(   38) = (   0.1875000  -0.1875000   0.5625000), wk =   0.0234375
        k(   39) = (  -0.1875000   0.4375000   0.1875000), wk =   0.0234375
        k(   40) = (  -0.3125000   0.5625000   0.0625000), wk =   0.0468750
        k(   41) = (   0.5625000  -0.3125000   0.9375000), wk =   0.0468750
        k(   42) = (   0.4375000  -0.1875000   0.8125000), wk =   0.0468750
        k(   43) = (   0.3125000  -0.0625000   0.6875000), wk =   0.0468750
        k(   44) = (  -0.1875000   0.6875000   0.1875000), wk =   0.0234375
        k(   45) = (   0.6875000  -0.1875000   1.0625000), wk =   0.0468750
        k(   46) = (   0.5625000  -0.0625000   0.9375000), wk =   0.0468750
        k(   47) = (   0.4375000   0.0625000   0.8125000), wk =   0.0468750
        k(   48) = (  -0.1875000  -1.0625000   0.1875000), wk =   0.0234375
        k(   49) = (  -0.3125000  -0.9375000   0.0625000), wk =   0.0468750
        k(   50) = (  -0.1875000  -0.8125000   0.1875000), wk =   0.0234375
        k(   51) = (  -0.3125000   0.3125000   0.3125000), wk =   0.0078125
        k(   52) = (  -0.4375000   0.4375000   0.1875000), wk =   0.0234375
        k(   53) = (   0.4375000  -0.4375000   1.0625000), wk =   0.0234375
        k(   54) = (   0.3125000  -0.3125000   0.9375000), wk =   0.0234375
        k(   55) = (  -0.3125000   0.5625000   0.3125000), wk =   0.0234375
        k(   56) = (   0.5625000  -0.3125000   1.1875000), wk =   0.0468750
        k(   57) = (   0.4375000  -0.1875000   1.0625000), wk =   0.0468750
        k(   58) = (  -0.3125000  -1.1875000   0.3125000), wk =   0.0234375
        k(   59) = (  -0.4375000   0.4375000   0.4375000), wk =   0.0078125
        k(   60) = (   0.4375000  -0.4375000   1.3125000), wk =   0.0234375

     Dense  grid:    39957 G-vectors     FFT dimensions: (  48,  48,  48)

     Smooth grid:    14211 G-vectors     FFT dimensions: (  36,  36,  36)

     Estimated max dynamical RAM per process >      12.74MB

     Estimated total allocated dynamical RAM >      50.97MB

     Initial potential from superposition of free atoms

     starting charge   25.99991, renormalised to   28.00000
     Starting wfc are   18 randomized atomic wfcs

     total cpu time spent up to now is        0.9 secs

     per-process dynamical memory:    17.9 Mb

     Self-consistent Calculation

     iteration #  1     ecut=    50.00 Ry     beta=0.70
     Davidson diagonalization with overlap
     ethr =  1.00E-02,  avg # of iterations =  3.0

     total cpu time spent up to now is        2.4 secs

     total energy              =    -317.30495302 Ry
     Harris-Foulkes estimate   =    -319.18479680 Ry
     estimated scf accuracy    <       2.30097459 Ry

     iteration #  2     ecut=    50.00 Ry     beta=0.70
     Davidson diagonalization with overlap
     ethr =  8.22E-03,  avg # of iterations =  3.0

     total cpu time spent up to now is        4.1 secs

     total energy              =    -318.13854295 Ry
     Harris-Foulkes estimate   =    -318.43939024 Ry
     estimated scf accuracy    <       0.45342040 Ry

     iteration #  3     ecut=    50.00 Ry     beta=0.70
     Davidson diagonalization with overlap
     ethr =  1.62E-03,  avg # of iterations =  2.0

     total cpu time spent up to now is        5.5 secs

     total energy              =    -318.22890074 Ry
     Harris-Foulkes estimate   =    -318.23020674 Ry
     estimated scf accuracy    <       0.00242503 Ry

     iteration #  4     ecut=    50.00 Ry     beta=0.70
     Davidson diagonalization with overlap
     ethr =  8.66E-06,  avg # of iterations =  3.0

     total cpu time spent up to now is        7.1 secs

     total energy              =    -318.22973669 Ry
     Harris-Foulkes estimate   =    -318.22985378 Ry
     estimated scf accuracy    <       0.00017317 Ry

     iteration #  5     ecut=    50.00 Ry     beta=0.70
     Davidson diagonalization with overlap
     ethr =  6.18E-07,  avg # of iterations =  3.0

     total cpu time spent up to now is        8.7 secs

     total energy              =    -318.22978971 Ry
     Harris-Foulkes estimate   =    -318.22979166 Ry
     estimated scf accuracy    <       0.00000334 Ry

     iteration #  6     ecut=    50.00 Ry     beta=0.70
     Davidson diagonalization with overlap
     ethr =  1.19E-08,  avg # of iterations =  2.9

     total cpu time spent up to now is       10.2 secs

     total energy              =    -318.22979057 Ry
     Harris-Foulkes estimate   =    -318.22979063 Ry
     estimated scf accuracy    <       0.00000009 Ry

     iteration #  7     ecut=    50.00 Ry     beta=0.70
     Davidson diagonalization with overlap
     ethr =  3.37E-10,  avg # of iterations =  3.1

     total cpu time spent up to now is       11.9 secs

     End of self-consistent calculation

          k =-0.0625 0.0625 0.0625 (  1810 PWs)   bands (ev):

    -8.4622  -8.4622  -8.4481  -8.2941  -8.2941  -7.4115  -7.4115  -7.4063
    -7.2517  -7.2517   0.6268  14.3063  14.9995  14.9995

          k =-0.1875 0.1875-0.0625 (  1791 PWs)   bands (ev):

    -8.5128  -8.4834  -8.4431  -8.2495  -8.2173  -7.4771  -7.4604  -7.3682
    -7.2622  -7.2045   0.9396  12.2933  13.5793  14.7685

          k =-0.3125 0.3125-0.1875 (  1791 PWs)   bands (ev):

    -8.5495  -8.5279  -8.4106  -8.1856  -8.1411  -7.5278  -7.5063  -7.4079
    -7.2269  -7.1741   1.7066   9.4617  12.8635  13.9250

          k =-0.4375 0.4375-0.3125 (  1782 PWs)   bands (ev):

    -8.5582  -8.5553  -8.3801  -8.1453  -8.1112  -7.5312  -7.5265  -7.4702
    -7.1898  -7.1694   2.8196   7.1001  12.5372  13.2423

          k = 0.4375-0.4375 0.5625 (  1772 PWs)   bands (ev):

    -8.5676  -8.5501  -8.3736  -8.1228  -8.1204  -7.5441  -7.5005  -7.4983
    -7.1848  -7.1676   3.4174   6.1846  12.6081  12.8967

          k = 0.3125-0.3125 0.4375 (  1790 PWs)   bands (ev):

    -8.5653  -8.5365  -8.3958  -8.1529  -8.1150  -7.5721  -7.4682  -7.4649
    -7.2083  -7.1651   2.4299   7.8037  12.9486  13.0466

          k = 0.1875-0.1875 0.3125 (  1792 PWs)   bands (ev):

    -8.5404  -8.5116  -8.4282  -8.2056  -8.1575  -7.5533  -7.4307  -7.4149
    -7.2382  -7.1848   1.4035  10.3744  13.4037  13.7724

          k = 0.0625-0.0625 0.1875 (  1791 PWs)   bands (ev):

    -8.4910  -8.4704  -8.4532  -8.2773  -8.2384  -7.4882  -7.3907  -7.3859
    -7.2691  -7.2194   0.7835  13.2899  14.1949  14.5326

          k =-0.0625 0.3125 0.0625 (  1789 PWs)   bands (ev):

    -8.5173  -8.4870  -8.4669  -8.2416  -8.1558  -7.5971  -7.3637  -7.3493
    -7.2948  -7.1991   1.0964  12.2036  13.3004  13.5189

          k =-0.1875 0.4375-0.0625 (  1786 PWs)   bands (ev):

    -8.5598  -8.5249  -8.4315  -8.1801  -8.0647  -7.6942  -7.4225  -7.3512
    -7.2567  -7.1685   1.7140  10.3092  11.9267  13.0768

          k =-0.3125 0.5625-0.1875 (  1782 PWs)   bands (ev):

    -8.6034  -8.5554  -8.3610  -8.1173  -8.0182  -7.7234  -7.4853  -7.4548
    -7.1896  -7.1258   2.7348   7.9317  11.3494  12.4093

          k = 0.5625-0.3125 0.6875 (  1777 PWs)   bands (ev):

    -8.6224  -8.5720  -8.3086  -8.0715  -8.0369  -7.6788  -7.5607  -7.5121
    -7.1537  -7.1067   3.7173   6.3693  11.0004  12.2363

          k = 0.4375-0.1875 0.5625 (  1781 PWs)   bands (ev):

    -8.6085  -8.5780  -8.3133  -8.1160  -8.0248  -7.6673  -7.5455  -7.5013
    -7.1511  -7.1240   3.1164   7.2718  10.8763  12.6722

          k = 0.3125-0.0625 0.4375 (  1781 PWs)   bands (ev):

    -8.5754  -8.5541  -8.3752  -8.1706  -8.0629  -7.6525  -7.5000  -7.3944
    -7.2172  -7.1448   2.0120   9.4778  11.2015  13.4776

          k = 0.1875 0.0625 0.3125 (  1787 PWs)   bands (ev):

    -8.5380  -8.5012  -8.4372  -8.2229  -8.1528  -7.5758  -7.4384  -7.3416
    -7.2783  -7.1817   1.2506  11.2873  12.7285  14.1165

          k =-0.0625 0.5625 0.0625 (  1769 PWs)   bands (ev):

    -8.5532  -8.5340  -8.4697  -8.1155  -7.9475  -7.8492  -7.4513  -7.2918
    -7.2305  -7.1948   2.1817   9.8268  11.6761  11.8073

          k =-0.1875 0.6875-0.0625 (  1773 PWs)   bands (ev):

    -8.5979  -8.5704  -8.3860  -8.0339  -7.9423  -7.8565  -7.5405  -7.3958
    -7.1657  -7.1330   3.0776   8.2786  10.6295  11.3169

          k = 0.6875-0.1875 0.8125 (  1776 PWs)   bands (ev):

    -8.6512  -8.5888  -8.2816  -7.9632  -7.9327  -7.8431  -7.6419  -7.5147
    -7.1281  -7.0671   4.1906   6.7407   9.6261  11.2635

          k = 0.5625-0.0625 0.6875 (  1780 PWs)   bands (ev):

    -8.6598  -8.5996  -8.2443  -7.9920  -7.9011  -7.8068  -7.6952  -7.5428
    -7.1121  -7.0618   4.1151   6.8550   9.1684  11.7609

          k = 0.4375 0.0625 0.5625 (  1781 PWs)   bands (ev):

    -8.6176  -8.5929  -8.2890  -8.1116  -7.9775  -7.7157  -7.5761  -7.5017
    -7.1288  -7.1181   3.0172   7.9806   9.9606  12.6175

          k = 0.3125 0.1875 0.4375 (  1784 PWs)   bands (ev):

    -8.5732  -8.5411  -8.3880  -8.1639  -8.0879  -7.6199  -7.4836  -7.4196
    -7.2162  -7.1528   2.1540   8.6430  12.1299  13.3188

          k =-0.0625 0.8125 0.0625 (  1762 PWs)   bands (ev):

    -8.5853  -8.5727  -8.3836  -8.1003  -7.9346  -7.7173  -7.6290  -7.4045
    -7.1463  -7.1344   3.8484   7.2514  10.6600  10.9191

          k = 0.8125-0.0625 0.9375 (  1770 PWs)   bands (ev):

    -8.6203  -8.5950  -8.2678  -8.1578  -7.8390  -7.7343  -7.6488  -7.5342
    -7.1145  -7.0915   4.9505   6.0466   9.9745  10.6173

          k = 0.6875 0.0625 0.8125 (  1773 PWs)   bands (ev):

    -8.6617  -8.5981  -8.2444  -7.9918  -7.8685  -7.7953  -7.7330  -7.5507
    -7.1114  -7.0518   4.8836   6.2046   9.1150  11.0647

          k = 0.5625 0.1875 0.6875 (  1778 PWs)   bands (ev):

    -8.6469  -8.5887  -8.2696  -8.0254  -7.9687  -7.7524  -7.6315  -7.5293
    -7.1283  -7.0775   4.0066   6.5045   9.9661  11.9144

          k = 0.4375 0.3125 0.5625 (  1777 PWs)   bands (ev):

    -8.5896  -8.5586  -8.3483  -8.1201  -8.0822  -7.6016  -7.5104  -7.5005
    -7.1753  -7.1433   3.2790   6.5947  11.9124  12.7621

          k =-0.0625-0.9375 0.0625 (  1758 PWs)   bands (ev):

    -8.5934  -8.5816  -8.3082  -8.2101  -7.8332  -7.7297  -7.6048  -7.4969
    -7.1264  -7.1161   4.8780   6.0212  10.4601  10.7366

          k =-0.1875-0.8125-0.0625 (  1765 PWs)   bands (ev):

    -8.6121  -8.5862  -8.3347  -8.0574  -7.9398  -7.7494  -7.6336  -7.4560
    -7.1322  -7.1072   3.9594   7.1682  10.1986  10.8412

          k =-0.3125-0.6875-0.1875 (  1775 PWs)   bands (ev):

    -8.6308  -8.5729  -8.3251  -8.0461  -7.9456  -7.8194  -7.5529  -7.4775
    -7.1569  -7.0943   3.4283   7.3129  10.4657  11.6904

          k =-0.0625-0.6875 0.0625 (  1760 PWs)   bands (ev):

    -8.5710  -8.5556  -8.4383  -8.0301  -7.9779  -7.8331  -7.5347  -7.3307
    -7.1828  -7.1659   2.9458   8.5368  11.0626  11.2791

          k =-0.1875-0.5625-0.0625 (  1770 PWs)   bands (ev):

    -8.5793  -8.5491  -8.4170  -8.1156  -7.9646  -7.8173  -7.4624  -7.3656
    -7.2094  -7.1555   2.3254   9.3236  11.2202  12.0797

          k =-0.0625-0.4375 0.0625 (  1787 PWs)   bands (ev):

    -8.5359  -8.5097  -8.4772  -8.1872  -8.0569  -7.7203  -7.3850  -7.3085
    -7.2789  -7.1980   1.5635  11.0594  12.4888  12.5085

          k =-0.1875 0.1875 0.1875 (  1787 PWs)   bands (ev):

    -8.5104  -8.5104  -8.4323  -8.2168  -8.2168  -7.4571  -7.4571  -7.4355
    -7.2184  -7.2184   1.0948  11.3305  14.1669  14.1669

          k =-0.3125 0.3125 0.0625 (  1785 PWs)   bands (ev):

    -8.5576  -8.5258  -8.4041  -8.1997  -8.1252  -7.5556  -7.5223  -7.3484
    -7.2603  -7.1601   1.5572  10.3549  11.9400  14.2055

          k =-0.4375 0.4375-0.0625 (  1784 PWs)   bands (ev):

    -8.5876  -8.5843  -8.3246  -8.1546  -8.0333  -7.6281  -7.5797  -7.4456
    -7.1702  -7.1313   2.4505   8.6930  10.5218  13.3628

          k = 0.4375-0.4375 0.8125 (  1780 PWs)   bands (ev):

    -8.6280  -8.5829  -8.2872  -8.0813  -8.0094  -7.6551  -7.6237  -7.5176
    -7.1340  -7.1050   3.5680   6.7723  10.3939  12.5350

          k = 0.3125-0.3125 0.6875 (  1781 PWs)   bands (ev):

    -8.6306  -8.5645  -8.3245  -8.0516  -8.0060  -7.7465  -7.5538  -7.4859
    -7.1644  -7.0958   3.5847   6.7361  10.8039  12.0634

          k = 0.1875-0.1875 0.5625 (  1779 PWs)   bands (ev):

    -8.5961  -8.5393  -8.4028  -8.1150  -7.9905  -7.7803  -7.4698  -7.3919
    -7.2143  -7.1363   2.4646   8.6762  11.5930  12.0469

          k =-0.1875 0.4375 0.1875 (  1789 PWs)   bands (ev):

    -8.5693  -8.5214  -8.4210  -8.1729  -8.0793  -7.6654  -7.4274  -7.3928
    -7.2421  -7.1607   1.8622   9.4929  12.6740  12.7408

          k =-0.3125 0.5625 0.0625 (  1779 PWs)   bands (ev):

    -8.5964  -8.5776  -8.3488  -8.1183  -7.9808  -7.7666  -7.4869  -7.4578
    -7.1705  -7.1302   2.6078   8.6516  10.5730  12.4152

          k = 0.5625-0.3125 0.9375 (  1776 PWs)   bands (ev):

    -8.6403  -8.6060  -8.2547  -8.0429  -7.9053  -7.8213  -7.6120  -7.5389
    -7.1108  -7.0859   3.6909   7.3306   9.5565  11.5976

          k = 0.4375-0.1875 0.8125 (  1775 PWs)   bands (ev):

    -8.6548  -8.6047  -8.2384  -7.9909  -7.8987  -7.8429  -7.6560  -7.5511
    -7.1116  -7.0635   4.3110   6.5251   9.6060  11.1501

          k = 0.3125-0.0625 0.6875 (  1775 PWs)   bands (ev):

    -8.6187  -8.5959  -8.3139  -8.0431  -7.8995  -7.8699  -7.5536  -7.4858
    -7.1330  -7.1074   3.3326   7.8372  10.0782  11.4090

          k =-0.1875 0.6875 0.1875 (  1767 PWs)   bands (ev):

    -8.6191  -8.5595  -8.3687  -8.0368  -7.9221  -7.8666  -7.5443  -7.4209
    -7.1746  -7.1079   3.1997   7.8720  10.5569  11.5552

          k = 0.6875-0.1875 1.0625 (  1779 PWs)   bands (ev):

    -8.6354  -8.6104  -8.2636  -7.9923  -7.9520  -7.7918  -7.6475  -7.5286
    -7.1072  -7.0827   4.1663   6.9810   9.7304  10.6673

          k = 0.5625-0.0625 0.9375 (  1770 PWs)   bands (ev):

    -8.6559  -8.6358  -8.1458  -8.0193  -7.8781  -7.7777  -7.7343  -7.6260
    -7.0757  -7.0558   5.1600   6.0842   9.3143  10.0411

          k = 0.4375 0.0625 0.8125 (  1779 PWs)   bands (ev):

    -8.6530  -8.6226  -8.2057  -7.9674  -7.9251  -7.8196  -7.6866  -7.5752
    -7.0920  -7.0638   4.4340   6.7061   9.3401  10.6597

          k =-0.1875-1.0625 0.1875 (  1764 PWs)   bands (ev):

    -8.6459  -8.5860  -8.2730  -8.0825  -7.8466  -7.7329  -7.7178  -7.5298
    -7.1219  -7.0667   4.9490   6.0902   9.4228  11.0466

          k =-0.3125-0.9375 0.0625 (  1772 PWs)   bands (ev):

    -8.6437  -8.6189  -8.2027  -8.0819  -7.8547  -7.7486  -7.7048  -7.5887
    -7.0921  -7.0682   5.0658   6.0744   9.5457  10.2899

          k =-0.1875-0.8125 0.1875 (  1768 PWs)   bands (ev):

    -8.6368  -8.5766  -8.3210  -8.0065  -7.9446  -7.7923  -7.6354  -7.4739
    -7.1407  -7.0820   4.0474   7.0071   9.8027  11.2180

          k =-0.3125 0.3125 0.3125 (  1796 PWs)   bands (ev):

    -8.5395  -8.5395  -8.4119  -8.1571  -8.1571  -7.4893  -7.4893  -7.4782
    -7.1956  -7.1956   2.0010   8.5742  13.4656  13.4656

          k =-0.4375 0.4375 0.1875 (  1782 PWs)   bands (ev):

    -8.5746  -8.5738  -8.3475  -8.1519  -8.0683  -7.5863  -7.5572  -7.4536
    -7.1791  -7.1461   2.5790   7.8904  11.4976  13.3283

          k = 0.4375-0.4375 1.0625 (  1784 PWs)   bands (ev):

    -8.6433  -8.5940  -8.2622  -8.0645  -7.9509  -7.6929  -7.6850  -7.5244
    -7.1183  -7.0876   3.5322   7.3747   9.4730  12.4466

          k = 0.3125-0.3125 0.9375 (  1773 PWs)   bands (ev):

    -8.6675  -8.5921  -8.2559  -7.9097  -7.8857  -7.8739  -7.7209  -7.5381
    -7.1173  -7.0490   4.5418   6.4689   8.9967  11.6375

          k =-0.3125 0.5625 0.3125 (  1783 PWs)   bands (ev):

    -8.5985  -8.5465  -8.3647  -8.1170  -8.0629  -7.6606  -7.4908  -7.4658
    -7.1953  -7.1313   2.9725   7.1822  11.9909  12.4629

          k = 0.5625-0.3125 1.1875 (  1775 PWs)   bands (ev):

    -8.6363  -8.5895  -8.2790  -8.0556  -7.9658  -7.7602  -7.5845  -7.5272
    -7.1326  -7.0892   3.7240   6.8098  10.2557  11.8047

          k = 0.4375-0.1875 1.0625 (  1772 PWs)   bands (ev):

    -8.6636  -8.6155  -8.2049  -7.9421  -7.9046  -7.8275  -7.7272  -7.5752
    -7.0963  -7.0512   4.7001   6.4196   9.1040  10.8436

          k =-0.3125-1.1875 0.3125 (  1768 PWs)   bands (ev):

    -8.6544  -8.5817  -8.2837  -7.9679  -7.9519  -7.8205  -7.6379  -7.5155
    -7.1341  -7.0656   4.1685   6.4991   9.7214  11.7822

          k =-0.4375 0.4375 0.4375 (  1781 PWs)   bands (ev):

    -8.5474  -8.5474  -8.3959  -8.1346  -8.1346  -7.5094  -7.4942  -7.4942
    -7.1886  -7.1886   3.1293   6.4939  13.0929  13.0929

          k = 0.4375-0.4375 1.3125 (  1774 PWs)   bands (ev):

    -8.6004  -8.5655  -8.3294  -8.1019  -8.0759  -7.5991  -7.5517  -7.5074
    -7.1604  -7.1349   3.5658   6.2866  11.5427  12.6957

     highest occupied level (ev):    14.9995

!    total energy              =    -318.22979060 Ry
     Harris-Foulkes estimate   =    -318.22979060 Ry
     estimated scf accuracy    <          8.6E-10 Ry

     The total energy is the sum of the following terms:

     one-electron contribution =    -111.97750658 Ry
     hartree contribution      =      79.55858488 Ry
     xc contribution           =     -86.60097898 Ry
     ewald contribution        =    -199.20988993 Ry

     convergence has been achieved in   7 iterations

     Writing output data file sn.alpha.10.6.save

     init_run     :      0.78s CPU      0.81s WALL (       1 calls)
     electrons    :     10.63s CPU     11.01s WALL (       1 calls)

     Called by init_run:
     wfcinit      :      0.45s CPU      0.48s WALL (       1 calls)
     potinit      :      0.03s CPU      0.03s WALL (       1 calls)

     Called by electrons:
     c_bands      :      8.66s CPU      8.96s WALL (       7 calls)
     sum_band     :      1.54s CPU      1.59s WALL (       7 calls)
     v_of_rho     :      0.17s CPU      0.17s WALL (       8 calls)
     newd         :      0.30s CPU      0.30s WALL (       8 calls)
     mix_rho      :      0.01s CPU      0.01s WALL (       7 calls)

     Called by c_bands:
     init_us_2    :      0.19s CPU      0.20s WALL (     900 calls)
     cegterg      :      8.24s CPU      8.54s WALL (     420 calls)

     Called by sum_band:
     sum_band:bec :      0.00s CPU      0.00s WALL (     420 calls)
     addusdens    :      0.34s CPU      0.35s WALL (       7 calls)

     Called by *egterg:
     h_psi        :      6.93s CPU      7.22s WALL (    1681 calls)
     s_psi        :      0.13s CPU      0.13s WALL (    1681 calls)
     g_psi        :      0.05s CPU      0.05s WALL (    1201 calls)
     cdiaghg      :      0.69s CPU      0.70s WALL (    1621 calls)

     Called by h_psi:
     h_psi:pot    :      6.89s CPU      7.16s WALL (    1681 calls)
     h_psi:calbec :      0.23s CPU      0.23s WALL (    1681 calls)
     vloc_psi     :      6.50s CPU      6.77s WALL (    1681 calls)
     add_vuspsi   :      0.15s CPU      0.16s WALL (    1681 calls)

     General routines
     calbec       :      0.29s CPU      0.28s WALL (    2101 calls)
     fft          :      0.07s CPU      0.07s WALL (     124 calls)
     ffts         :      0.01s CPU      0.01s WALL (      15 calls)
     fftw         :      6.54s CPU      6.64s WALL (   45902 calls)
     interpolate  :      0.02s CPU      0.02s WALL (      15 calls)
     davcio       :      0.00s CPU      0.00s WALL (      60 calls)

     Parallel routines
     fft_scatter  :      1.01s CPU      1.20s WALL (   46041 calls)

     PWSCF        :    11.56s CPU        12.88s WALL


   This run was terminated on:  15:30:56  11Nov2017            

=------------------------------------------------------------------------------=
   JOB DONE.
=------------------------------------------------------------------------------=
