
     Program PWSCF v.6.1 (svn rev. 13369) starts on 13Nov2017 at  2:40:10 

     This program is part of the open-source Quantum ESPRESSO suite
     for quantum simulation of materials; please cite
         "P. Giannozzi et al., J. Phys.:Condens. Matter 21 395502 (2009);
          URL http://www.quantum-espresso.org", 
     in publications or presentations arising from this work. More details at
     http://www.quantum-espresso.org/quote

     Parallel version (MPI), running on     4 processors
     R & G space division:  proc/nbgrp/npool/nimage =       4
     Waiting for input...
     Reading input from standard input

     Current dimensions of program PWSCF are:
     Max number of different atomic species (ntypx) = 10
     Max number of k-points (npk) =  40000
     Max angular momentum in pseudopotentials (lmaxx) =  3

     Subspace diagonalization in iterative solution of the eigenvalue problem:
     a serial algorithm will be used


     Parallelization info
     --------------------
     sticks:   dense  smooth     PW     G-vecs:    dense   smooth      PW
     Min        1248     500    199                17960     4546    1165
     Max        1250     501    200                17961     4547    1166
     Sum        4997    2001    797                71841    18185    4661



     bravais-lattice index     =            0
     lattice parameter (alat)  =      11.3600  a.u.
     unit-cell volume          =     380.9192 (a.u.)^3
     number of atoms/cell      =            2
     number of atomic types    =            1
     number of electrons       =        28.00
     number of Kohn-Sham states=           18
     kinetic-energy cutoff     =      50.0000  Ry
     charge density cutoff     =     500.0000  Ry
     convergence threshold     =      1.0E-08
     mixing beta               =       0.7000
     number of iterations used =            8  plain     mixing
     Exchange-correlation      =  SLA  PW   PBX  PBC ( 1  4  3  4 0 0)

     celldm(1)=  11.360000  celldm(2)=   0.000000  celldm(3)=   0.000000
     celldm(4)=   0.000000  celldm(5)=   0.000000  celldm(6)=   0.000000

     crystal axes: (cart. coord. in units of alat)
               a(1) = (   0.986837   0.000000   0.000000 )  
               a(2) = (   0.000000   0.986837   0.000000 )  
               a(3) = (   0.493419   0.493419   0.266813 )  

     reciprocal axes: (cart. coord. in units 2 pi/alat)
               b(1) = (  1.013339  0.000000 -1.873974 )  
               b(2) = (  0.000000  1.013339 -1.873974 )  
               b(3) = (  0.000000  0.000000  3.747943 )  


     PseudoPot. # 1 for Sn read from file:
     /home/s1333534/quantum_espresso/qe-6.1/pseudo/sn_pbe_v1.4.uspp.F.UPF
     MD5 check sum: 469debedee59599fedebd795477fea03
     Pseudo is Ultrasoft + core correction, Zval = 14.0
     Generated by new atomic code, or converted to UPF format
     Using radial grid of  891 points,  6 beta functions with: 
                l(1) =   0
                l(2) =   0
                l(3) =   1
                l(4) =   1
                l(5) =   2
                l(6) =   2
     Q(r) pseudized with  8 coefficients,  rinner =    1.350   1.350   1.350
                                                       1.350   1.350

     atomic species   valence    mass     pseudopotential
        Sn            14.00   118.71000     Sn( 1.00)

     No symmetry found



   Cartesian axes

     site n.     atom                  positions (alat units)
         1           Sn  tau(   1) = (   1.0725850   1.3160481   0.0533919  )
         2           Sn  tau(   2) = (   0.5198369   0.2763739   0.0177973  )

     number of k points=   448  Marzari-Vanderbilt smearing, width (Ry)=  0.0200

     Number of k-points >= 100: set verbosity='high' to print them.

     Dense  grid:    71841 G-vectors     FFT dimensions: (  80,  80,  64)

     Smooth grid:    18185 G-vectors     FFT dimensions: (  54,  54,  40)

     Estimated max dynamical RAM per process >      85.90MB

     Estimated total allocated dynamical RAM >     343.59MB

     Initial potential from superposition of free atoms

     starting charge   25.99991, renormalised to   28.00000
     Starting wfc are   18 randomized atomic wfcs

     total cpu time spent up to now is       13.7 secs

     per-process dynamical memory:    92.6 Mb

     Self-consistent Calculation

     iteration #  1     ecut=    50.00 Ry     beta=0.70
     Davidson diagonalization with overlap
     ethr =  1.00E-02,  avg # of iterations =  3.9

     total cpu time spent up to now is       65.1 secs

     total energy              =    -317.49952171 Ry
     Harris-Foulkes estimate   =    -319.47951425 Ry
     estimated scf accuracy    <       2.42411764 Ry

     iteration #  2     ecut=    50.00 Ry     beta=0.70
     Davidson diagonalization with overlap
     ethr =  8.66E-03,  avg # of iterations =  2.6

     total cpu time spent up to now is      110.4 secs

     total energy              =    -318.35704511 Ry
     Harris-Foulkes estimate   =    -318.65859624 Ry
     estimated scf accuracy    <       0.44349605 Ry

     iteration #  3     ecut=    50.00 Ry     beta=0.70
     Davidson diagonalization with overlap
     ethr =  1.58E-03,  avg # of iterations =  2.0

     total cpu time spent up to now is      154.4 secs

     total energy              =    -318.44899815 Ry
     Harris-Foulkes estimate   =    -318.45074140 Ry
     estimated scf accuracy    <       0.00294246 Ry

     iteration #  4     ecut=    50.00 Ry     beta=0.70
     Davidson diagonalization with overlap
     ethr =  1.05E-05,  avg # of iterations =  3.6

     total cpu time spent up to now is      203.7 secs

     total energy              =    -318.44961967 Ry
     Harris-Foulkes estimate   =    -318.44978785 Ry
     estimated scf accuracy    <       0.00033368 Ry

     iteration #  5     ecut=    50.00 Ry     beta=0.70
     Davidson diagonalization with overlap
     ethr =  1.19E-06,  avg # of iterations =  2.7

     total cpu time spent up to now is      242.0 secs

     total energy              =    -318.44967275 Ry
     Harris-Foulkes estimate   =    -318.44968328 Ry
     estimated scf accuracy    <       0.00001801 Ry

     iteration #  6     ecut=    50.00 Ry     beta=0.70
     Davidson diagonalization with overlap
     ethr =  6.43E-08,  avg # of iterations =  3.0

     total cpu time spent up to now is      290.4 secs

     total energy              =    -318.44967975 Ry
     Harris-Foulkes estimate   =    -318.44968014 Ry
     estimated scf accuracy    <       0.00000088 Ry

     iteration #  7     ecut=    50.00 Ry     beta=0.70
     Davidson diagonalization with overlap
     ethr =  3.14E-09,  avg # of iterations =  2.7

     total cpu time spent up to now is      331.7 secs

     total energy              =    -318.44967986 Ry
     Harris-Foulkes estimate   =    -318.44967998 Ry
     estimated scf accuracy    <       0.00000018 Ry

     iteration #  8     ecut=    50.00 Ry     beta=0.70
     Davidson diagonalization with overlap
     ethr =  6.31E-10,  avg # of iterations =  3.0

     total cpu time spent up to now is      379.4 secs

     End of self-consistent calculation

     Number of k-points >= 100: set verbosity='high' to print the bands.

     the Fermi energy is    10.1623 ev

!    total energy              =    -318.44967992 Ry
     Harris-Foulkes estimate   =    -318.44967993 Ry
     estimated scf accuracy    <          7.5E-09 Ry

     The total energy is the sum of the following terms:

     one-electron contribution =    -120.20523549 Ry
     hartree contribution      =      79.91135141 Ry
     xc contribution           =     -86.03014350 Ry
     ewald contribution        =    -192.12576712 Ry
     smearing contrib. (-TS)   =       0.00011478 Ry

     convergence has been achieved in   8 iterations

     Writing output data file sn.beta.11.36.save

     init_run     :     13.27s CPU     13.59s WALL (       1 calls)
     electrons    :    357.25s CPU    365.81s WALL (       1 calls)

     Called by init_run:
     wfcinit      :     12.15s CPU     12.43s WALL (       1 calls)
     potinit      :      0.31s CPU      0.32s WALL (       1 calls)

     Called by electrons:
     c_bands      :    289.41s CPU    296.49s WALL (       8 calls)
     sum_band     :     65.98s CPU     67.32s WALL (       8 calls)
     v_of_rho     :      0.96s CPU      1.00s WALL (       9 calls)
     newd         :      0.91s CPU      0.99s WALL (       9 calls)
     mix_rho      :      0.11s CPU      0.11s WALL (       8 calls)

     Called by c_bands:
     init_us_2    :      2.34s CPU      2.39s WALL (    7616 calls)
     cegterg      :    284.74s CPU    291.73s WALL (    3584 calls)

     Called by sum_band:
     sum_band:bec :      0.04s CPU      0.05s WALL (    3584 calls)
     addusdens    :      1.03s CPU      1.16s WALL (       8 calls)

     Called by *egterg:
     h_psi        :    272.78s CPU    279.68s WALL (   14545 calls)
     s_psi        :      1.47s CPU      1.49s WALL (   14545 calls)
     g_psi        :      0.54s CPU      0.54s WALL (   10513 calls)
     cdiaghg      :      9.11s CPU      9.23s WALL (   14097 calls)

     Called by h_psi:
     h_psi:pot    :    271.99s CPU    278.87s WALL (   14545 calls)
     h_psi:calbec :      3.70s CPU      3.74s WALL (   14545 calls)
     vloc_psi     :    266.41s CPU    273.19s WALL (   14545 calls)
     add_vuspsi   :      1.87s CPU      1.89s WALL (   14545 calls)

     General routines
     calbec       :      4.89s CPU      4.93s WALL (   18129 calls)
     fft          :      0.68s CPU      0.72s WALL (     140 calls)
     ffts         :      0.01s CPU      0.01s WALL (      17 calls)
     fftw         :    207.86s CPU    212.97s WALL (  448142 calls)
     interpolate  :      0.11s CPU      0.12s WALL (      17 calls)
     davcio       :      0.01s CPU      0.02s WALL (     448 calls)

     Parallel routines
     fft_scatter  :     41.17s CPU     41.73s WALL (  448299 calls)

     PWSCF        :  6m11.16s CPU     6m27.44s WALL


   This run was terminated on:   2:46:37  13Nov2017            

=------------------------------------------------------------------------------=
   JOB DONE.
=------------------------------------------------------------------------------=
