
     Program PWSCF v.6.1 (svn rev. 13369) starts on 11Nov2017 at 16:11:35 

     This program is part of the open-source Quantum ESPRESSO suite
     for quantum simulation of materials; please cite
         "P. Giannozzi et al., J. Phys.:Condens. Matter 21 395502 (2009);
          URL http://www.quantum-espresso.org", 
     in publications or presentations arising from this work. More details at
     http://www.quantum-espresso.org/quote

     Parallel version (MPI), running on     4 processors
     R & G space division:  proc/nbgrp/npool/nimage =       4
     Waiting for input...
     Reading input from standard input
     Message from routine read_cards :
     DEPRECATED: no units specified in ATOMIC_POSITIONS card
     Message from routine read_cards :
     ATOMIC_POSITIONS: units set to alat

     Current dimensions of program PWSCF are:
     Max number of different atomic species (ntypx) = 10
     Max number of k-points (npk) =  40000
     Max angular momentum in pseudopotentials (lmaxx) =  3

     Subspace diagonalization in iterative solution of the eigenvalue problem:
     a serial algorithm will be used


     Parallelization info
     --------------------
     sticks:   dense  smooth     PW     G-vecs:    dense   smooth      PW
     Min         540     267     78                16506     5851     958
     Max         541     268     79                16509     5855     963
     Sum        2161    1069    313                66027    23409    3839



     bravais-lattice index     =            2
     lattice parameter (alat)  =      12.5100  a.u.
     unit-cell volume          =     489.4541 (a.u.)^3
     number of atoms/cell      =            2
     number of atomic types    =            1
     number of electrons       =        28.00
     number of Kohn-Sham states=           14
     kinetic-energy cutoff     =      50.0000  Ry
     charge density cutoff     =     400.0000  Ry
     convergence threshold     =      1.0E-08
     mixing beta               =       0.7000
     number of iterations used =            8  plain     mixing
     Exchange-correlation      =  SLA  PW   PBX  PBC ( 1  4  3  4 0 0)

     celldm(1)=  12.510000  celldm(2)=   0.000000  celldm(3)=   0.000000
     celldm(4)=   0.000000  celldm(5)=   0.000000  celldm(6)=   0.000000

     crystal axes: (cart. coord. in units of alat)
               a(1) = (  -0.500000   0.000000   0.500000 )  
               a(2) = (   0.000000   0.500000   0.500000 )  
               a(3) = (  -0.500000   0.500000   0.000000 )  

     reciprocal axes: (cart. coord. in units 2 pi/alat)
               b(1) = ( -1.000000 -1.000000  1.000000 )  
               b(2) = (  1.000000  1.000000  1.000000 )  
               b(3) = ( -1.000000  1.000000 -1.000000 )  


     PseudoPot. # 1 for Sn read from file:
     /home/s1333534/quantum_espresso/qe-6.1/pseudo/sn_pbe_v1.4.uspp.F.UPF
     MD5 check sum: 469debedee59599fedebd795477fea03
     Pseudo is Ultrasoft + core correction, Zval = 14.0
     Generated by new atomic code, or converted to UPF format
     Using radial grid of  891 points,  6 beta functions with: 
                l(1) =   0
                l(2) =   0
                l(3) =   1
                l(4) =   1
                l(5) =   2
                l(6) =   2
     Q(r) pseudized with  8 coefficients,  rinner =    1.350   1.350   1.350
                                                       1.350   1.350

     atomic species   valence    mass     pseudopotential
        Sn            14.00   118.71000     Sn( 1.00)

     48 Sym. Ops., with inversion, found (24 have fractional translation)



   Cartesian axes

     site n.     atom                  positions (alat units)
         1           Sn  tau(   1) = (   0.0000000   0.0000000   0.0000000  )
         2           Sn  tau(   2) = (   0.2500000   0.2500000   0.2500000  )

     number of k points=    60
                       cart. coord. in units 2pi/alat
        k(    1) = (  -0.0625000   0.0625000   0.0625000), wk =   0.0078125
        k(    2) = (  -0.1875000   0.1875000  -0.0625000), wk =   0.0234375
        k(    3) = (  -0.3125000   0.3125000  -0.1875000), wk =   0.0234375
        k(    4) = (  -0.4375000   0.4375000  -0.3125000), wk =   0.0234375
        k(    5) = (   0.4375000  -0.4375000   0.5625000), wk =   0.0234375
        k(    6) = (   0.3125000  -0.3125000   0.4375000), wk =   0.0234375
        k(    7) = (   0.1875000  -0.1875000   0.3125000), wk =   0.0234375
        k(    8) = (   0.0625000  -0.0625000   0.1875000), wk =   0.0234375
        k(    9) = (  -0.0625000   0.3125000   0.0625000), wk =   0.0234375
        k(   10) = (  -0.1875000   0.4375000  -0.0625000), wk =   0.0468750
        k(   11) = (  -0.3125000   0.5625000  -0.1875000), wk =   0.0468750
        k(   12) = (   0.5625000  -0.3125000   0.6875000), wk =   0.0468750
        k(   13) = (   0.4375000  -0.1875000   0.5625000), wk =   0.0468750
        k(   14) = (   0.3125000  -0.0625000   0.4375000), wk =   0.0468750
        k(   15) = (   0.1875000   0.0625000   0.3125000), wk =   0.0468750
        k(   16) = (  -0.0625000   0.5625000   0.0625000), wk =   0.0234375
        k(   17) = (  -0.1875000   0.6875000  -0.0625000), wk =   0.0468750
        k(   18) = (   0.6875000  -0.1875000   0.8125000), wk =   0.0468750
        k(   19) = (   0.5625000  -0.0625000   0.6875000), wk =   0.0468750
        k(   20) = (   0.4375000   0.0625000   0.5625000), wk =   0.0468750
        k(   21) = (   0.3125000   0.1875000   0.4375000), wk =   0.0468750
        k(   22) = (  -0.0625000   0.8125000   0.0625000), wk =   0.0234375
        k(   23) = (   0.8125000  -0.0625000   0.9375000), wk =   0.0468750
        k(   24) = (   0.6875000   0.0625000   0.8125000), wk =   0.0468750
        k(   25) = (   0.5625000   0.1875000   0.6875000), wk =   0.0468750
        k(   26) = (   0.4375000   0.3125000   0.5625000), wk =   0.0468750
        k(   27) = (  -0.0625000  -0.9375000   0.0625000), wk =   0.0234375
        k(   28) = (  -0.1875000  -0.8125000  -0.0625000), wk =   0.0468750
        k(   29) = (  -0.3125000  -0.6875000  -0.1875000), wk =   0.0468750
        k(   30) = (  -0.0625000  -0.6875000   0.0625000), wk =   0.0234375
        k(   31) = (  -0.1875000  -0.5625000  -0.0625000), wk =   0.0468750
        k(   32) = (  -0.0625000  -0.4375000   0.0625000), wk =   0.0234375
        k(   33) = (  -0.1875000   0.1875000   0.1875000), wk =   0.0078125
        k(   34) = (  -0.3125000   0.3125000   0.0625000), wk =   0.0234375
        k(   35) = (  -0.4375000   0.4375000  -0.0625000), wk =   0.0234375
        k(   36) = (   0.4375000  -0.4375000   0.8125000), wk =   0.0234375
        k(   37) = (   0.3125000  -0.3125000   0.6875000), wk =   0.0234375
        k(   38) = (   0.1875000  -0.1875000   0.5625000), wk =   0.0234375
        k(   39) = (  -0.1875000   0.4375000   0.1875000), wk =   0.0234375
        k(   40) = (  -0.3125000   0.5625000   0.0625000), wk =   0.0468750
        k(   41) = (   0.5625000  -0.3125000   0.9375000), wk =   0.0468750
        k(   42) = (   0.4375000  -0.1875000   0.8125000), wk =   0.0468750
        k(   43) = (   0.3125000  -0.0625000   0.6875000), wk =   0.0468750
        k(   44) = (  -0.1875000   0.6875000   0.1875000), wk =   0.0234375
        k(   45) = (   0.6875000  -0.1875000   1.0625000), wk =   0.0468750
        k(   46) = (   0.5625000  -0.0625000   0.9375000), wk =   0.0468750
        k(   47) = (   0.4375000   0.0625000   0.8125000), wk =   0.0468750
        k(   48) = (  -0.1875000  -1.0625000   0.1875000), wk =   0.0234375
        k(   49) = (  -0.3125000  -0.9375000   0.0625000), wk =   0.0468750
        k(   50) = (  -0.1875000  -0.8125000   0.1875000), wk =   0.0234375
        k(   51) = (  -0.3125000   0.3125000   0.3125000), wk =   0.0078125
        k(   52) = (  -0.4375000   0.4375000   0.1875000), wk =   0.0234375
        k(   53) = (   0.4375000  -0.4375000   1.0625000), wk =   0.0234375
        k(   54) = (   0.3125000  -0.3125000   0.9375000), wk =   0.0234375
        k(   55) = (  -0.3125000   0.5625000   0.3125000), wk =   0.0234375
        k(   56) = (   0.5625000  -0.3125000   1.1875000), wk =   0.0468750
        k(   57) = (   0.4375000  -0.1875000   1.0625000), wk =   0.0468750
        k(   58) = (  -0.3125000  -1.1875000   0.3125000), wk =   0.0234375
        k(   59) = (  -0.4375000   0.4375000   0.4375000), wk =   0.0078125
        k(   60) = (   0.4375000  -0.4375000   1.3125000), wk =   0.0234375

     Dense  grid:    66027 G-vectors     FFT dimensions: (  60,  60,  60)

     Smooth grid:    23409 G-vectors     FFT dimensions: (  40,  40,  40)

     Estimated max dynamical RAM per process >      21.50MB

     Estimated total allocated dynamical RAM >      86.01MB

     Check: negative/imaginary core charge=   -0.000001    0.000000

     Initial potential from superposition of free atoms

     starting charge   25.99991, renormalised to   28.00000
     Starting wfc are   18 randomized atomic wfcs

     total cpu time spent up to now is        1.3 secs

     per-process dynamical memory:    25.6 Mb

     Self-consistent Calculation

     iteration #  1     ecut=    50.00 Ry     beta=0.70
     Davidson diagonalization with overlap
     ethr =  1.00E-02,  avg # of iterations =  2.6

     total cpu time spent up to now is        3.8 secs

     total energy              =    -317.48667782 Ry
     Harris-Foulkes estimate   =    -319.54609089 Ry
     estimated scf accuracy    <       2.50928729 Ry

     iteration #  2     ecut=    50.00 Ry     beta=0.70
     Davidson diagonalization with overlap
     ethr =  8.96E-03,  avg # of iterations =  3.0

     total cpu time spent up to now is        6.4 secs

     total energy              =    -318.39377618 Ry
     Harris-Foulkes estimate   =    -318.71171802 Ry
     estimated scf accuracy    <       0.47360465 Ry

     iteration #  3     ecut=    50.00 Ry     beta=0.70
     Davidson diagonalization with overlap
     ethr =  1.69E-03,  avg # of iterations =  2.0

     total cpu time spent up to now is        8.8 secs

     total energy              =    -318.48875513 Ry
     Harris-Foulkes estimate   =    -318.49032763 Ry
     estimated scf accuracy    <       0.00288134 Ry

     iteration #  4     ecut=    50.00 Ry     beta=0.70
     Davidson diagonalization with overlap
     ethr =  1.03E-05,  avg # of iterations =  3.0

     total cpu time spent up to now is       11.3 secs

     total energy              =    -318.48964267 Ry
     Harris-Foulkes estimate   =    -318.48976063 Ry
     estimated scf accuracy    <       0.00017482 Ry

     iteration #  5     ecut=    50.00 Ry     beta=0.70
     Davidson diagonalization with overlap
     ethr =  6.24E-07,  avg # of iterations =  3.0

     total cpu time spent up to now is       13.8 secs

     total energy              =    -318.48969644 Ry
     Harris-Foulkes estimate   =    -318.48969719 Ry
     estimated scf accuracy    <       0.00000152 Ry

     iteration #  6     ecut=    50.00 Ry     beta=0.70
     Davidson diagonalization with overlap
     ethr =  5.43E-09,  avg # of iterations =  3.9

     total cpu time spent up to now is       16.5 secs

     total energy              =    -318.48969720 Ry
     Harris-Foulkes estimate   =    -318.48969724 Ry
     estimated scf accuracy    <       0.00000007 Ry

     iteration #  7     ecut=    50.00 Ry     beta=0.70
     Davidson diagonalization with overlap
     ethr =  2.38E-10,  avg # of iterations =  3.2

     total cpu time spent up to now is       19.1 secs

     End of self-consistent calculation

          k =-0.0625 0.0625 0.0625 (  2900 PWs)   bands (ev):

   -14.4803 -14.4803 -14.4773 -14.4241 -14.4241 -14.1744 -14.1744 -14.1652
   -14.1523 -14.1523  -3.0733   5.6206   7.1217   7.1217

          k =-0.1875 0.1875-0.0625 (  2897 PWs)   bands (ev):

   -14.4931 -14.4880 -14.4739 -14.4124 -14.4051 -14.1982 -14.1885 -14.1624
   -14.1468 -14.1337  -2.8853   4.4147   6.4284   6.9822

          k =-0.3125 0.3125-0.1875 (  2910 PWs)   bands (ev):

   -14.5051 -14.5018 -14.4625 -14.3941 -14.3840 -14.2173 -14.2051 -14.1787
   -14.1292 -14.1213  -2.4384   2.8144   5.9306   6.5523

          k =-0.4375 0.4375-0.3125 (  2921 PWs)   bands (ev):

   -14.5106 -14.5105 -14.4518 -14.3808 -14.3733 -14.2248 -14.2150 -14.1948
   -14.1183 -14.1163  -1.8474   1.4894   5.6835   6.1876

          k = 0.4375-0.4375 0.5625 (  2924 PWs)   bands (ev):

   -14.5141 -14.5097 -14.4488 -14.3747 -14.3739 -14.2236 -14.2210 -14.1978
   -14.1180 -14.1138  -1.5847   1.0369   5.6845   6.0111

          k = 0.3125-0.3125 0.4375 (  2925 PWs)   bands (ev):

   -14.5115 -14.5057 -14.4563 -14.3839 -14.3752 -14.2272 -14.2111 -14.1876
   -14.1238 -14.1158  -2.0430   1.8717   5.9175   6.0610

          k = 0.1875-0.1875 0.3125 (  2910 PWs)   bands (ev):

   -14.5018 -14.4967 -14.4683 -14.4003 -14.3890 -14.2174 -14.1953 -14.1722
   -14.1348 -14.1251  -2.6121   3.3400   6.3348   6.3393

          k = 0.0625-0.0625 0.1875 (  2893 PWs)   bands (ev):

   -14.4869 -14.4842 -14.4780 -14.4194 -14.4104 -14.1963 -14.1742 -14.1614
   -14.1516 -14.1403  -2.9786   4.9423   6.7689   6.8044

          k =-0.0625 0.3125 0.0625 (  2906 PWs)   bands (ev):

   -14.4939 -14.4903 -14.4797 -14.4102 -14.3894 -14.2244 -14.1800 -14.1542
   -14.1464 -14.1334  -2.7901   4.1248   6.2917   6.3059

          k =-0.1875 0.4375-0.0625 (  2914 PWs)   bands (ev):

   -14.5075 -14.5022 -14.4666 -14.3937 -14.3649 -14.2505 -14.1977 -14.1651
   -14.1312 -14.1200  -2.4242   2.9979   5.5068   6.0662

          k =-0.3125 0.5625-0.1875 (  2930 PWs)   bands (ev):

   -14.5221 -14.5112 -14.4441 -14.3754 -14.3508 -14.2617 -14.2173 -14.1919
   -14.1176 -14.1051  -1.8537   1.7339   4.9957   5.7605

          k = 0.5625-0.3125 0.6875 (  2923 PWs)   bands (ev):

   -14.5288 -14.5156 -14.4279 -14.3616 -14.3541 -14.2519 -14.2351 -14.2105
   -14.1108 -14.0977  -1.3881   0.9580   4.7321   5.6923

          k = 0.4375-0.1875 0.5625 (  2925 PWs)   bands (ev):

   -14.5249 -14.5160 -14.4311 -14.3730 -14.3525 -14.2509 -14.2219 -14.2120
   -14.1102 -14.1027  -1.6619   1.3929   4.7338   5.9031

          k = 0.3125-0.0625 0.4375 (  2915 PWs)   bands (ev):

   -14.5121 -14.5095 -14.4513 -14.3896 -14.3648 -14.2433 -14.2070 -14.1845
   -14.1220 -14.1139  -2.2560   2.5576   5.0915   6.2980

          k = 0.1875 0.0625 0.3125 (  2908 PWs)   bands (ev):

   -14.5000 -14.4944 -14.4708 -14.4051 -14.3886 -14.2210 -14.1909 -14.1631
   -14.1411 -14.1263  -2.6999   3.7251   5.9595   6.5963

          k =-0.0625 0.5625 0.0625 (  2905 PWs)   bands (ev):

   -14.5091 -14.5064 -14.4712 -14.3778 -14.3333 -14.2890 -14.2099 -14.1533
   -14.1249 -14.1205  -2.1392   2.4561   5.3874   5.4771

          k =-0.1875 0.6875-0.0625 (  2924 PWs)   bands (ev):

   -14.5222 -14.5166 -14.4464 -14.3564 -14.3154 -14.3080 -14.2326 -14.1813
   -14.1109 -14.1047  -1.6177   1.5340   4.8138   5.2114

          k = 0.6875-0.1875 0.8125 (  2923 PWs)   bands (ev):

   -14.5369 -14.5216 -14.4149 -14.3359 -14.3186 -14.3021 -14.2565 -14.2139
   -14.1037 -14.0881  -1.0347   0.7207   4.2280   5.1802

          k = 0.5625-0.0625 0.6875 (  2928 PWs)   bands (ev):

   -14.5395 -14.5228 -14.4061 -14.3412 -14.3225 -14.2849 -14.2645 -14.2238
   -14.1017 -14.0860  -1.0993   0.8030   4.0110   5.4375

          k = 0.4375 0.0625 0.5625 (  2924 PWs)   bands (ev):

   -14.5280 -14.5189 -14.4242 -14.3722 -14.3424 -14.2623 -14.2233 -14.2177
   -14.1061 -14.1001  -1.6912   1.5684   4.3979   5.8790

          k = 0.3125 0.1875 0.4375 (  2919 PWs)   bands (ev):

   -14.5124 -14.5064 -14.4545 -14.3875 -14.3699 -14.2363 -14.2079 -14.1849
   -14.1241 -14.1142  -2.1832   2.2681   5.4679   6.2031

          k =-0.0625 0.8125 0.0625 (  2922 PWs)   bands (ev):

   -14.5220 -14.5196 -14.4396 -14.3566 -14.3321 -14.2702 -14.2551 -14.1866
   -14.1066 -14.1037  -1.1471   0.8708   4.8473   4.9752

          k = 0.8125-0.0625 0.9375 (  2919 PWs)   bands (ev):

   -14.5303 -14.5249 -14.4066 -14.3753 -14.3073 -14.2810 -14.2512 -14.2204
   -14.0995 -14.0940  -0.5183   0.1423   4.4986   4.8238

          k = 0.6875 0.0625 0.8125 (  2922 PWs)   bands (ev):

   -14.5401 -14.5244 -14.4019 -14.3334 -14.3134 -14.2899 -14.2786 -14.2252
   -14.0999 -14.0843  -0.6503   0.3077   4.0478   5.0661

          k = 0.5625 0.1875 0.6875 (  2929 PWs)   bands (ev):

   -14.5358 -14.5201 -14.4147 -14.3495 -14.3381 -14.2703 -14.2512 -14.2186
   -14.1052 -14.0901  -1.2020   0.8416   4.2787   5.5226

          k = 0.4375 0.3125 0.5625 (  2920 PWs)   bands (ev):

   -14.5196 -14.5118 -14.4412 -14.3739 -14.3654 -14.2354 -14.2212 -14.2031
   -14.1157 -14.1076  -1.6179   1.1760   5.2470   5.9444

          k =-0.0625-0.9375 0.0625 (  2924 PWs)   bands (ev):

   -14.5251 -14.5226 -14.4161 -14.3876 -14.3066 -14.2806 -14.2398 -14.2109
   -14.1021 -14.0997  -0.5375   0.1401   4.7369   4.8722

          k =-0.1875-0.8125-0.0625 (  2924 PWs)   bands (ev):

   -14.5275 -14.5219 -14.4284 -14.3465 -14.3327 -14.2789 -14.2558 -14.1988
   -14.1037 -14.0978  -1.0989   0.8212   4.6050   4.9538

          k =-0.3125-0.6875-0.1875 (  2933 PWs)   bands (ev):

   -14.5308 -14.5167 -14.4305 -14.3575 -14.3299 -14.2877 -14.2349 -14.2013
   -14.1103 -14.0956  -1.4626   1.2166   4.5615   5.4110

          k =-0.0625-0.6875 0.0625 (  2919 PWs)   bands (ev):

   -14.5165 -14.5137 -14.4583 -14.3561 -14.3234 -14.3021 -14.2311 -14.1670
   -14.1145 -14.1114  -1.6834   1.6469   5.0658   5.1788

          k =-0.1875-0.5625-0.0625 (  2922 PWs)   bands (ev):

   -14.5151 -14.5097 -14.4591 -14.3772 -14.3380 -14.2822 -14.2125 -14.1699
   -14.1206 -14.1130  -2.0618   2.2634   5.1181   5.5888

          k =-0.0625-0.4375 0.0625 (  2905 PWs)   bands (ev):

   -14.5015 -14.4981 -14.4782 -14.3962 -14.3627 -14.2557 -14.1926 -14.1491
   -14.1363 -14.1285  -2.5094   3.2868   5.8026   5.8596

          k =-0.1875 0.1875 0.1875 (  2899 PWs)   bands (ev):

   -14.4938 -14.4938 -14.4711 -14.4042 -14.4042 -14.1960 -14.1960 -14.1727
   -14.1348 -14.1348  -2.7938   3.9523   6.7172   6.7172

          k =-0.3125 0.3125 0.0625 (  2911 PWs)   bands (ev):

   -14.5060 -14.5017 -14.4608 -14.3980 -14.3814 -14.2223 -14.2048 -14.1731
   -14.1324 -14.1195  -2.5208   3.1630   5.5137   6.6862

          k =-0.4375 0.4375-0.0625 (  2918 PWs)   bands (ev):

   -14.5193 -14.5152 -14.4365 -14.3840 -14.3572 -14.2439 -14.2161 -14.2039
   -14.1109 -14.1097  -2.0092   2.0668   4.7035   6.2601

          k = 0.4375-0.4375 0.8125 (  2930 PWs)   bands (ev):

   -14.5307 -14.5178 -14.4220 -14.3638 -14.3485 -14.2489 -14.2420 -14.2173
   -14.1074 -14.0963  -1.4346   1.0856   4.4772   5.8315

          k = 0.3125-0.3125 0.6875 (  2926 PWs)   bands (ev):

   -14.5306 -14.5147 -14.4305 -14.3584 -14.3450 -14.2688 -14.2348 -14.2036
   -14.1124 -14.0956  -1.4201   1.0626   4.6601   5.5903

          k = 0.1875-0.1875 0.5625 (  2929 PWs)   bands (ev):

   -14.5196 -14.5077 -14.4546 -14.3765 -14.3439 -14.2741 -14.2145 -14.1763
   -14.1225 -14.1080  -1.9908   2.0546   5.1521   5.5992

          k =-0.1875 0.4375 0.1875 (  2917 PWs)   bands (ev):

   -14.5105 -14.5015 -14.4633 -14.3912 -14.3681 -14.2446 -14.2011 -14.1719
   -14.1304 -14.1167  -2.3428   2.6986   5.7200   5.9444

          k =-0.3125 0.5625 0.0625 (  2925 PWs)   bands (ev):

   -14.5206 -14.5158 -14.4413 -14.3760 -14.3427 -14.2714 -14.2161 -14.1936
   -14.1121 -14.1070  -1.9102   1.9440   4.7429   5.7634

          k = 0.5625-0.3125 0.9375 (  2926 PWs)   bands (ev):

   -14.5345 -14.5236 -14.4117 -14.3546 -14.3227 -14.2883 -14.2433 -14.2217
   -14.1014 -14.0917  -1.3132   1.0759   4.2014   5.3669

          k = 0.4375-0.1875 0.8125 (  2930 PWs)   bands (ev):

   -14.5382 -14.5246 -14.4049 -14.3405 -14.3188 -14.2956 -14.2579 -14.2250
   -14.1006 -14.0870  -1.0058   0.6757   4.1639   5.1486

          k = 0.3125-0.0625 0.6875 (  2931 PWs)   bands (ev):

   -14.5282 -14.5216 -14.4282 -14.3568 -14.3179 -14.3008 -14.2349 -14.2032
   -14.1047 -14.0986  -1.4910   1.3315   4.4897   5.2710

          k =-0.1875 0.6875 0.1875 (  2929 PWs)   bands (ev):

   -14.5275 -14.5141 -14.4413 -14.3568 -14.3193 -14.3026 -14.2336 -14.1875
   -14.1134 -14.0991  -1.5632   1.4128   4.6953   5.3251

          k = 0.6875-0.1875 1.0625 (  2923 PWs)   bands (ev):

   -14.5333 -14.5265 -14.4108 -14.3344 -14.3306 -14.2908 -14.2579 -14.2174
   -14.0985 -14.0918  -1.0093   0.7251   4.3399   4.8929

          k = 0.5625-0.0625 0.9375 (  2937 PWs)   bands (ev):

   -14.5388 -14.5333 -14.3774 -14.3419 -14.3127 -14.2871 -14.2773 -14.2472
   -14.0911 -14.0857  -0.4689   0.1452   4.1634   4.5670

          k = 0.4375 0.0625 0.8125 (  2929 PWs)   bands (ev):

   -14.5380 -14.5289 -14.3957 -14.3345 -14.3166 -14.2996 -14.2642 -14.2322
   -14.0957 -14.0870  -0.8918   0.5932   4.1276   4.8949

          k =-0.1875-1.0625 0.1875 (  2917 PWs)   bands (ev):

   -14.5361 -14.5227 -14.4078 -14.3566 -14.3093 -14.2799 -14.2687 -14.2194
   -14.1018 -14.0879  -0.5642   0.2008   4.2174   5.0401

          k =-0.3125-0.9375 0.0625 (  2924 PWs)   bands (ev):

   -14.5356 -14.5296 -14.3910 -14.3569 -14.3095 -14.2827 -14.2670 -14.2353
   -14.0948 -14.0885  -0.4899   0.1445   4.2834   4.6774

          k =-0.1875-0.8125 0.1875 (  2921 PWs)   bands (ev):

   -14.5333 -14.5197 -14.4244 -14.3346 -14.3335 -14.2897 -14.2558 -14.2033
   -14.1058 -14.0918  -1.0732   0.7809   4.3787   5.1363

          k =-0.3125 0.3125 0.3125 (  2923 PWs)   bands (ev):

   -14.5046 -14.5046 -14.4622 -14.3865 -14.3865 -14.2118 -14.2118 -14.1841
   -14.1238 -14.1238  -2.2768   2.3432   6.3256   6.3256

          k =-0.4375 0.4375 0.1875 (  2924 PWs)   bands (ev):

   -14.5158 -14.5132 -14.4430 -14.3829 -14.3645 -14.2356 -14.2144 -14.2012
   -14.1141 -14.1123  -1.9521   1.8179   5.0956   6.2374

          k = 0.4375-0.4375 1.0625 (  2931 PWs)   bands (ev):

   -14.5351 -14.5203 -14.4137 -14.3599 -14.3359 -14.2621 -14.2507 -14.2208
   -14.1045 -14.0917  -1.4157   1.1808   4.1433   5.7871

          k = 0.3125-0.3125 0.9375 (  2927 PWs)   bands (ev):

   -14.5416 -14.5222 -14.4064 -14.3189 -14.3177 -14.3036 -14.2744 -14.2219
   -14.1023 -14.0833  -0.8695   0.5399   3.9539   5.3583

          k =-0.3125 0.5625 0.3125 (  2922 PWs)   bands (ev):

   -14.5211 -14.5092 -14.4448 -14.3744 -14.3608 -14.2473 -14.2190 -14.1938
   -14.1194 -14.1058  -1.7498   1.4407   5.2598   5.8050

          k = 0.5625-0.3125 1.1875 (  2929 PWs)   bands (ev):

   -14.5330 -14.5200 -14.4186 -14.3576 -14.3368 -14.2731 -14.2393 -14.2166
   -14.1059 -14.0932  -1.3334   1.0082   4.4148   5.4805

          k = 0.4375-0.1875 1.0625 (  2935 PWs)   bands (ev):

   -14.5408 -14.5277 -14.3940 -14.3263 -14.3138 -14.3018 -14.2747 -14.2329
   -14.0968 -14.0841  -0.7653   0.4459   4.0198   4.9749

          k =-0.3125-1.1875 0.3125 (  2932 PWs)   bands (ev):

   -14.5379 -14.5195 -14.4163 -14.3385 -14.3297 -14.2888 -14.2550 -14.2143
   -14.1060 -14.0878  -1.0972   0.7473   4.2032   5.4374

          k =-0.4375 0.4375 0.4375 (  2917 PWs)   bands (ev):

   -14.5086 -14.5086 -14.4553 -14.3777 -14.3777 -14.2183 -14.2183 -14.1920
   -14.1194 -14.1194  -1.7149   1.2069   6.1093   6.1093

          k = 0.4375-0.4375 1.3125 (  2932 PWs)   bands (ev):

   -14.5231 -14.5138 -14.4355 -14.3690 -14.3639 -14.2328 -14.2313 -14.2088
   -14.1131 -14.1045  -1.4872   1.0059   5.0345   5.9116

     highest occupied level (ev):     7.1217

!    total energy              =    -318.48969723 Ry
     Harris-Foulkes estimate   =    -318.48969723 Ry
     estimated scf accuracy    <          2.5E-09 Ry

     The total energy is the sum of the following terms:

     one-electron contribution =    -160.78661771 Ry
     hartree contribution      =      97.06820556 Ry
     xc contribution           =     -85.97633438 Ry
     ewald contribution        =    -168.79495070 Ry

     convergence has been achieved in   7 iterations

     Writing output data file sn.alpha.12.51.save

     init_run     :      1.24s CPU      1.27s WALL (       1 calls)
     electrons    :     17.22s CPU     17.84s WALL (       1 calls)

     Called by init_run:
     wfcinit      :      0.75s CPU      0.78s WALL (       1 calls)
     potinit      :      0.06s CPU      0.06s WALL (       1 calls)

     Called by electrons:
     c_bands      :     13.71s CPU     14.04s WALL (       7 calls)
     sum_band     :      2.69s CPU      2.85s WALL (       7 calls)
     v_of_rho     :      0.35s CPU      0.37s WALL (       8 calls)
     newd         :      0.52s CPU      0.59s WALL (       8 calls)
     mix_rho      :      0.03s CPU      0.03s WALL (       7 calls)

     Called by c_bands:
     init_us_2    :      0.38s CPU      0.39s WALL (     900 calls)
     cegterg      :     13.01s CPU     13.33s WALL (     420 calls)

     Called by sum_band:
     sum_band:bec :      0.00s CPU      0.00s WALL (     420 calls)
     addusdens    :      0.53s CPU      0.63s WALL (       7 calls)

     Called by *egterg:
     h_psi        :     11.24s CPU     11.55s WALL (    1728 calls)
     s_psi        :      0.21s CPU      0.21s WALL (    1728 calls)
     g_psi        :      0.07s CPU      0.08s WALL (    1248 calls)
     cdiaghg      :      0.73s CPU      0.74s WALL (    1668 calls)

     Called by h_psi:
     h_psi:pot    :     11.15s CPU     11.46s WALL (    1728 calls)
     h_psi:calbec :      0.49s CPU      0.50s WALL (    1728 calls)
     vloc_psi     :     10.39s CPU     10.69s WALL (    1728 calls)
     add_vuspsi   :      0.26s CPU      0.27s WALL (    1728 calls)

     General routines
     calbec       :      0.62s CPU      0.62s WALL (    2148 calls)
     fft          :      0.15s CPU      0.16s WALL (     124 calls)
     ffts         :      0.01s CPU      0.01s WALL (      15 calls)
     fftw         :      9.75s CPU     10.00s WALL (   45636 calls)
     interpolate  :      0.03s CPU      0.03s WALL (      15 calls)
     davcio       :      0.00s CPU      0.00s WALL (      60 calls)

     Parallel routines
     fft_scatter  :      1.63s CPU      1.62s WALL (   45775 calls)

     PWSCF        :    18.62s CPU        20.36s WALL


   This run was terminated on:  16:11:55  11Nov2017            

=------------------------------------------------------------------------------=
   JOB DONE.
=------------------------------------------------------------------------------=
