
     Program PWSCF v.6.1 (svn rev. 13369) starts on 11Nov2017 at 16:34:49 

     This program is part of the open-source Quantum ESPRESSO suite
     for quantum simulation of materials; please cite
         "P. Giannozzi et al., J. Phys.:Condens. Matter 21 395502 (2009);
          URL http://www.quantum-espresso.org", 
     in publications or presentations arising from this work. More details at
     http://www.quantum-espresso.org/quote

     Parallel version (MPI), running on     4 processors
     R & G space division:  proc/nbgrp/npool/nimage =       4
     Waiting for input...
     Reading input from standard input
     Message from routine read_cards :
     DEPRECATED: no units specified in ATOMIC_POSITIONS card
     Message from routine read_cards :
     ATOMIC_POSITIONS: units set to alat

     Current dimensions of program PWSCF are:
     Max number of different atomic species (ntypx) = 10
     Max number of k-points (npk) =  40000
     Max angular momentum in pseudopotentials (lmaxx) =  3

     Subspace diagonalization in iterative solution of the eigenvalue problem:
     a serial algorithm will be used


     Parallelization info
     --------------------
     sticks:   dense  smooth     PW     G-vecs:    dense   smooth      PW
     Min         543     267     84                16729     5875    1003
     Max         544     268     85                16732     5880    1005
     Sum        2173    1069    337                66923    23505    4015



     bravais-lattice index     =            2
     lattice parameter (alat)  =      12.5480  a.u.
     unit-cell volume          =     493.9279 (a.u.)^3
     number of atoms/cell      =            2
     number of atomic types    =            1
     number of electrons       =        28.00
     number of Kohn-Sham states=           14
     kinetic-energy cutoff     =      50.0000  Ry
     charge density cutoff     =     400.0000  Ry
     convergence threshold     =      1.0E-08
     mixing beta               =       0.7000
     number of iterations used =            8  plain     mixing
     Exchange-correlation      =  SLA  PW   PBX  PBC ( 1  4  3  4 0 0)

     celldm(1)=  12.548000  celldm(2)=   0.000000  celldm(3)=   0.000000
     celldm(4)=   0.000000  celldm(5)=   0.000000  celldm(6)=   0.000000

     crystal axes: (cart. coord. in units of alat)
               a(1) = (  -0.500000   0.000000   0.500000 )  
               a(2) = (   0.000000   0.500000   0.500000 )  
               a(3) = (  -0.500000   0.500000   0.000000 )  

     reciprocal axes: (cart. coord. in units 2 pi/alat)
               b(1) = ( -1.000000 -1.000000  1.000000 )  
               b(2) = (  1.000000  1.000000  1.000000 )  
               b(3) = ( -1.000000  1.000000 -1.000000 )  


     PseudoPot. # 1 for Sn read from file:
     /home/s1333534/quantum_espresso/qe-6.1/pseudo/sn_pbe_v1.4.uspp.F.UPF
     MD5 check sum: 469debedee59599fedebd795477fea03
     Pseudo is Ultrasoft + core correction, Zval = 14.0
     Generated by new atomic code, or converted to UPF format
     Using radial grid of  891 points,  6 beta functions with: 
                l(1) =   0
                l(2) =   0
                l(3) =   1
                l(4) =   1
                l(5) =   2
                l(6) =   2
     Q(r) pseudized with  8 coefficients,  rinner =    1.350   1.350   1.350
                                                       1.350   1.350

     atomic species   valence    mass     pseudopotential
        Sn            14.00   118.71000     Sn( 1.00)

     48 Sym. Ops., with inversion, found (24 have fractional translation)



   Cartesian axes

     site n.     atom                  positions (alat units)
         1           Sn  tau(   1) = (   0.0000000   0.0000000   0.0000000  )
         2           Sn  tau(   2) = (   0.2500000   0.2500000   0.2500000  )

     number of k points=   182

     Number of k-points >= 100: set verbosity='high' to print them.

     Dense  grid:    66923 G-vectors     FFT dimensions: (  60,  60,  60)

     Smooth grid:    23505 G-vectors     FFT dimensions: (  40,  40,  40)

     Estimated max dynamical RAM per process >      40.91MB

     Estimated total allocated dynamical RAM >     163.62MB

     Initial potential from superposition of free atoms

     starting charge   25.99991, renormalised to   28.00000
     Starting wfc are   18 randomized atomic wfcs

     total cpu time spent up to now is        2.9 secs

     per-process dynamical memory:    45.8 Mb

     Self-consistent Calculation

     iteration #  1     ecut=    50.00 Ry     beta=0.70
     Davidson diagonalization with overlap
     ethr =  1.00E-02,  avg # of iterations =  2.6

     total cpu time spent up to now is        9.9 secs

     total energy              =    -317.48569351 Ry
     Harris-Foulkes estimate   =    -319.54787540 Ry
     estimated scf accuracy    <       2.51257218 Ry

     iteration #  2     ecut=    50.00 Ry     beta=0.70
     Davidson diagonalization with overlap
     ethr =  8.97E-03,  avg # of iterations =  3.0

     total cpu time spent up to now is       17.6 secs

     total energy              =    -318.39380784 Ry
     Harris-Foulkes estimate   =    -318.71192666 Ry
     estimated scf accuracy    <       0.47371833 Ry

     iteration #  3     ecut=    50.00 Ry     beta=0.70
     Davidson diagonalization with overlap
     ethr =  1.69E-03,  avg # of iterations =  2.0

     total cpu time spent up to now is       24.3 secs

     total energy              =    -318.48886249 Ry
     Harris-Foulkes estimate   =    -318.49043444 Ry
     estimated scf accuracy    <       0.00288116 Ry

     iteration #  4     ecut=    50.00 Ry     beta=0.70
     Davidson diagonalization with overlap
     ethr =  1.03E-05,  avg # of iterations =  3.0

     total cpu time spent up to now is       31.5 secs

     total energy              =    -318.48975262 Ry
     Harris-Foulkes estimate   =    -318.48986981 Ry
     estimated scf accuracy    <       0.00017370 Ry

     iteration #  5     ecut=    50.00 Ry     beta=0.70
     Davidson diagonalization with overlap
     ethr =  6.20E-07,  avg # of iterations =  3.0

     total cpu time spent up to now is       38.8 secs

     total energy              =    -318.48980584 Ry
     Harris-Foulkes estimate   =    -318.48980652 Ry
     estimated scf accuracy    <       0.00000143 Ry

     iteration #  6     ecut=    50.00 Ry     beta=0.70
     Davidson diagonalization with overlap
     ethr =  5.10E-09,  avg # of iterations =  4.0

     total cpu time spent up to now is       46.7 secs

     total energy              =    -318.48980661 Ry
     Harris-Foulkes estimate   =    -318.48980666 Ry
     estimated scf accuracy    <       0.00000008 Ry

     iteration #  7     ecut=    50.00 Ry     beta=0.70
     Davidson diagonalization with overlap
     ethr =  2.75E-10,  avg # of iterations =  3.1

     total cpu time spent up to now is       54.2 secs

     End of self-consistent calculation

     Number of k-points >= 100: set verbosity='high' to print the bands.

     highest occupied level (ev):     7.0547

!    total energy              =    -318.48980665 Ry
     Harris-Foulkes estimate   =    -318.48980665 Ry
     estimated scf accuracy    <          2.5E-09 Ry

     The total energy is the sum of the following terms:

     one-electron contribution =    -161.62193214 Ry
     hartree contribution      =      97.38371777 Ry
     xc contribution           =     -85.96781532 Ry
     ewald contribution        =    -168.28377696 Ry

     convergence has been achieved in   7 iterations

     Writing output data file sn.alpha.12.548.save

     init_run     :      2.76s CPU      2.85s WALL (       1 calls)
     electrons    :     49.82s CPU     51.30s WALL (       1 calls)

     Called by init_run:
     wfcinit      :      2.27s CPU      2.34s WALL (       1 calls)
     potinit      :      0.06s CPU      0.07s WALL (       1 calls)

     Called by electrons:
     c_bands      :     42.01s CPU     43.12s WALL (       7 calls)
     sum_band     :      6.95s CPU      7.23s WALL (       7 calls)
     v_of_rho     :      0.37s CPU      0.38s WALL (       8 calls)
     newd         :      0.53s CPU      0.58s WALL (       8 calls)
     mix_rho      :      0.03s CPU      0.03s WALL (       7 calls)

     Called by c_bands:
     init_us_2    :      1.09s CPU      1.11s WALL (    2730 calls)
     cegterg      :     39.89s CPU     40.98s WALL (    1274 calls)

     Called by sum_band:
     sum_band:bec :      0.01s CPU      0.01s WALL (    1274 calls)
     addusdens    :      0.54s CPU      0.64s WALL (       7 calls)

     Called by *egterg:
     h_psi        :     34.53s CPU     35.59s WALL (    5221 calls)
     s_psi        :      0.62s CPU      0.63s WALL (    5221 calls)
     g_psi        :      0.23s CPU      0.23s WALL (    3765 calls)
     cdiaghg      :      2.23s CPU      2.24s WALL (    5039 calls)

     Called by h_psi:
     h_psi:pot    :     34.24s CPU     35.29s WALL (    5221 calls)
     h_psi:calbec :      1.48s CPU      1.51s WALL (    5221 calls)
     vloc_psi     :     31.97s CPU     32.96s WALL (    5221 calls)
     add_vuspsi   :      0.77s CPU      0.79s WALL (    5221 calls)

     General routines
     calbec       :      1.85s CPU      1.89s WALL (    6495 calls)
     fft          :      0.18s CPU      0.18s WALL (     124 calls)
     ffts         :      0.01s CPU      0.01s WALL (      15 calls)
     fftw         :     29.70s CPU     30.70s WALL (  138328 calls)
     interpolate  :      0.03s CPU      0.03s WALL (      15 calls)
     davcio       :      0.00s CPU      0.01s WALL (     182 calls)

     Parallel routines
     fft_scatter  :      5.07s CPU      4.88s WALL (  138467 calls)

     PWSCF        :    52.88s CPU        57.55s WALL


   This run was terminated on:  16:35:47  11Nov2017            

=------------------------------------------------------------------------------=
   JOB DONE.
=------------------------------------------------------------------------------=
