
     Program PWSCF v.6.1 (svn rev. 13369) starts on 12Nov2017 at 14:18:54 

     This program is part of the open-source Quantum ESPRESSO suite
     for quantum simulation of materials; please cite
         "P. Giannozzi et al., J. Phys.:Condens. Matter 21 395502 (2009);
          URL http://www.quantum-espresso.org", 
     in publications or presentations arising from this work. More details at
     http://www.quantum-espresso.org/quote

     Parallel version (MPI), running on     4 processors
     R & G space division:  proc/nbgrp/npool/nimage =       4
     Waiting for input...
     Reading input from standard input

     Current dimensions of program PWSCF are:
     Max number of different atomic species (ntypx) = 10
     Max number of k-points (npk) =  40000
     Max angular momentum in pseudopotentials (lmaxx) =  3

     Subspace diagonalization in iterative solution of the eigenvalue problem:
     a serial algorithm will be used

     warning: symmetry operation #  2 not compatible with FFT grid. 
  -1   0   0
   0  -1   0
  -1  -1   1
     warning: symmetry operation #  3 not compatible with FFT grid. 
  -1   0   0
   0   1   0
   0   1  -1
     warning: symmetry operation #  4 not compatible with FFT grid. 
   1   0   0
   0  -1   0
   1   0  -1
     warning: symmetry operation #  5 not compatible with FFT grid. 
   0   1   0
   1   0   0
   1   1  -1
     warning: symmetry operation #  7 not compatible with FFT grid. 
   0  -1   0
   1   0   0
   0  -1   1
     warning: symmetry operation #  8 not compatible with FFT grid. 
   0   1   0
  -1   0   0
  -1   0   1
     warning: symmetry operation # 10 not compatible with FFT grid. 
   1   0   0
   0   1   0
   1   1  -1
     warning: symmetry operation # 11 not compatible with FFT grid. 
   1   0   0
   0  -1   0
   0  -1   1
     warning: symmetry operation # 12 not compatible with FFT grid. 
  -1   0   0
   0   1   0
  -1   0   1
     warning: symmetry operation # 13 not compatible with FFT grid. 
   0  -1   0
  -1   0   0
  -1  -1   1
     warning: symmetry operation # 15 not compatible with FFT grid. 
   0   1   0
  -1   0   0
   0   1  -1
     warning: symmetry operation # 16 not compatible with FFT grid. 
   0  -1   0
   1   0   0
   1   0  -1

     Parallelization info
     --------------------
     sticks:   dense  smooth     PW     G-vecs:    dense   smooth      PW
     Min        1281     512    205                18607     4707    1201
     Max        1283     514    206                18608     4708    1202
     Sum        5129    2053    821                74429    18829    4805



     bravais-lattice index     =            0
     lattice parameter (alat)  =      11.2375  a.u.
     unit-cell volume          =     394.0293 (a.u.)^3
     number of atoms/cell      =            2
     number of atomic types    =            1
     number of electrons       =        28.00
     number of Kohn-Sham states=           18
     kinetic-energy cutoff     =      50.0000  Ry
     charge density cutoff     =     500.0000  Ry
     convergence threshold     =      1.0E-08
     mixing beta               =       0.7000
     number of iterations used =            8  plain     mixing
     Exchange-correlation      =  SLA  PW   PBX  PBC ( 1  4  3  4 0 0)
     nstep                     =           50


     celldm(1)=  11.237464  celldm(2)=   0.000000  celldm(3)=   0.000000
     celldm(4)=   0.000000  celldm(5)=   0.000000  celldm(6)=   0.000000

     crystal axes: (cart. coord. in units of alat)
               a(1) = (   1.009693   0.000000  -0.000000 )  
               a(2) = (  -0.000000   1.009693  -0.000000 )  
               a(3) = (   0.504847   0.504847   0.272361 )  

     reciprocal axes: (cart. coord. in units 2 pi/alat)
               b(1) = (  0.990400  0.000000 -1.835800 )  
               b(2) = ( -0.000000  0.990400 -1.835800 )  
               b(3) = (  0.000000  0.000000  3.671600 )  


     PseudoPot. # 1 for Sn read from file:
     /home/s1333534/quantum_espresso/qe-6.1/pseudo/sn_pbe_v1.4.uspp.F.UPF
     MD5 check sum: 469debedee59599fedebd795477fea03
     Pseudo is Ultrasoft + core correction, Zval = 14.0
     Generated by new atomic code, or converted to UPF format
     Using radial grid of  891 points,  6 beta functions with: 
                l(1) =   0
                l(2) =   0
                l(3) =   1
                l(4) =   1
                l(5) =   2
                l(6) =   2
     Q(r) pseudized with  8 coefficients,  rinner =    1.350   1.350   1.350
                                                       1.350   1.350

     atomic species   valence    mass     pseudopotential
        Sn            14.00   118.71000     Sn( 1.00)

      2 Sym. Ops., with inversion, found
          (note: 12 additional sym.ops. were found but ignored
           their fractional translations are incommensurate with FFT grid)


   Cartesian axes

     site n.     atom                  positions (alat units)
         1           Sn  tau(   1) = (   1.0096932   1.2621165   0.2042706  )
         2           Sn  tau(   2) = (   0.5048466   0.2524233   0.0680902  )

     number of k points=  1568  Marzari-Vanderbilt smearing, width (Ry)=  0.0200

     Number of k-points >= 100: set verbosity='high' to print them.

     Dense  grid:    74429 G-vectors     FFT dimensions: (  81,  81,  64)

     Smooth grid:    18829 G-vectors     FFT dimensions: (  54,  54,  40)

     Estimated max dynamical RAM per process >     269.73MB

     Estimated total allocated dynamical RAM >    1078.92MB

     Initial potential from superposition of free atoms

     starting charge   25.99991, renormalised to   28.00000
     Starting wfc are   18 randomized atomic wfcs

     total cpu time spent up to now is       47.2 secs

     per-process dynamical memory:   300.6 Mb

     Self-consistent Calculation

     iteration #  1     ecut=    50.00 Ry     beta=0.70
     Davidson diagonalization with overlap
     ethr =  1.00E-02,  avg # of iterations =  3.4

     total cpu time spent up to now is      228.5 secs

     total energy              =    -317.55055234 Ry
     Harris-Foulkes estimate   =    -319.51750129 Ry
     estimated scf accuracy    <       2.40852861 Ry

     iteration #  2     ecut=    50.00 Ry     beta=0.70
     Davidson diagonalization with overlap
     ethr =  8.60E-03,  avg # of iterations =  2.6

     total cpu time spent up to now is      390.4 secs

     total energy              =    -318.40048159 Ry
     Harris-Foulkes estimate   =    -318.67933800 Ry
     estimated scf accuracy    <       0.40470734 Ry

     iteration #  3     ecut=    50.00 Ry     beta=0.70
     Davidson diagonalization with overlap
     ethr =  1.45E-03,  avg # of iterations =  2.0

     total cpu time spent up to now is      544.0 secs

     total energy              =    -318.48344779 Ry
     Harris-Foulkes estimate   =    -318.48456190 Ry
     estimated scf accuracy    <       0.00203987 Ry

     iteration #  4     ecut=    50.00 Ry     beta=0.70
     Davidson diagonalization with overlap
     ethr =  7.29E-06,  avg # of iterations =  3.3

     total cpu time spent up to now is      715.1 secs

     total energy              =    -318.48393191 Ry
     Harris-Foulkes estimate   =    -318.48400514 Ry
     estimated scf accuracy    <       0.00010832 Ry

     iteration #  5     ecut=    50.00 Ry     beta=0.70
     Davidson diagonalization with overlap
     ethr =  3.87E-07,  avg # of iterations =  2.0

     total cpu time spent up to now is      869.3 secs

     total energy              =    -318.48395944 Ry
     Harris-Foulkes estimate   =    -318.48395934 Ry
     estimated scf accuracy    <       0.00000013 Ry

     iteration #  6     ecut=    50.00 Ry     beta=0.70
     Davidson diagonalization with overlap
     ethr =  4.60E-10,  avg # of iterations =  4.0

     total cpu time spent up to now is     1070.5 secs

     End of self-consistent calculation

     Number of k-points >= 100: set verbosity='high' to print the bands.

     the Fermi energy is     9.6458 ev

!    total energy              =    -318.48395969 Ry
     Harris-Foulkes estimate   =    -318.48395969 Ry
     estimated scf accuracy    <          6.2E-09 Ry

     The total energy is the sum of the following terms:

     one-electron contribution =    -118.73785793 Ry
     hartree contribution      =      78.75259684 Ry
     xc contribution           =     -85.94743359 Ry
     ewald contribution        =    -192.55151915 Ry
     smearing contrib. (-TS)   =       0.00025414 Ry

     convergence has been achieved in   6 iterations

     Forces acting on atoms (cartesian axes, Ry/au):

     atom    1 type  1   force =    -0.00001454    0.00001579    0.00000018
     atom    2 type  1   force =     0.00001454   -0.00001579   -0.00000018

     Total force =     0.000030     Total SCF correction =     0.000039
     SCF correction compared to forces is large: reduce conv_thr to get better values


     Computing stress (Cartesian axis) and pressure

          total   stress  (Ry/bohr**3)                   (kbar)     P=  -33.77
  -0.00023617  -0.00000000   0.00000000        -34.74     -0.00      0.00
  -0.00000000  -0.00023617   0.00000000         -0.00    -34.74      0.00
   0.00000000   0.00000000  -0.00021640          0.00      0.00    -31.83


     BFGS Geometry Optimization

     number of scf cycles    =   1
     number of bfgs steps    =   0

     enthalpy new            =    -318.4839596874 Ry

     new trust radius        =       0.0234404389 bohr
     new conv_thr            =       0.0000000100 Ry

     new unit-cell volume =    387.28339 a.u.^3 (    57.38948 Ang^3 )
     density =      6.86964 g/cm^3

CELL_PARAMETERS (alat= 11.23746432)
   1.003731642  -0.000000005   0.000000031
  -0.000000005   1.003731653   0.000000037
   0.501865827   0.501865834   0.270887340

ATOMIC_POSITIONS (crystal)
Sn       0.624998690   0.875001363   0.750000058
Sn       0.375001310   0.124998637   0.249999942



     Writing output data file sn.beta.relax.save
     NEW-OLD atomic charge density approx. for the potential
     extrapolated charge   27.54712, renormalised to   28.00000

     total cpu time spent up to now is     1111.6 secs

     per-process dynamical memory:   310.7 Mb

     Self-consistent Calculation

     iteration #  1     ecut=    50.00 Ry     beta=0.70
     Davidson diagonalization with overlap
     ethr =  1.00E-06,  avg # of iterations =  4.3

     total cpu time spent up to now is     1341.1 secs

     total energy              =    -318.44692508 Ry
     Harris-Foulkes estimate   =    -320.15696208 Ry
     estimated scf accuracy    <       0.02496668 Ry

     iteration #  2     ecut=    50.00 Ry     beta=0.70
     Davidson diagonalization with overlap
     ethr =  8.92E-05,  avg # of iterations =  3.1

     total cpu time spent up to now is     1534.8 secs

     total energy              =    -318.48454171 Ry
     Harris-Foulkes estimate   =    -318.50252924 Ry
     estimated scf accuracy    <       0.03654086 Ry

     iteration #  3     ecut=    50.00 Ry     beta=0.70
     Davidson diagonalization with overlap
     ethr =  8.92E-05,  avg # of iterations =  2.0

     total cpu time spent up to now is     1680.7 secs

     total energy              =    -318.48588169 Ry
     Harris-Foulkes estimate   =    -318.48779814 Ry
     estimated scf accuracy    <       0.00533882 Ry

     iteration #  4     ecut=    50.00 Ry     beta=0.70
     Davidson diagonalization with overlap
     ethr =  1.91E-05,  avg # of iterations =  1.1

     total cpu time spent up to now is     1800.7 secs

     total energy              =    -318.48535057 Ry
     Harris-Foulkes estimate   =    -318.48613807 Ry
     estimated scf accuracy    <       0.00180287 Ry

     iteration #  5     ecut=    50.00 Ry     beta=0.70
     Davidson diagonalization with overlap
     ethr =  6.44E-06,  avg # of iterations =  1.5

     total cpu time spent up to now is     1922.7 secs

     total energy              =    -318.48529210 Ry
     Harris-Foulkes estimate   =    -318.48549574 Ry
     estimated scf accuracy    <       0.00037318 Ry

     iteration #  6     ecut=    50.00 Ry     beta=0.70
     Davidson diagonalization with overlap
     ethr =  1.33E-06,  avg # of iterations =  3.0

     total cpu time spent up to now is     2100.4 secs

     total energy              =    -318.48538610 Ry
     Harris-Foulkes estimate   =    -318.48540051 Ry
     estimated scf accuracy    <       0.00002122 Ry

     iteration #  7     ecut=    50.00 Ry     beta=0.70
     Davidson diagonalization with overlap
     ethr =  7.58E-08,  avg # of iterations =  2.1

     total cpu time spent up to now is     2259.1 secs

     total energy              =    -318.48539173 Ry
     Harris-Foulkes estimate   =    -318.48539183 Ry
     estimated scf accuracy    <       0.00000132 Ry

     iteration #  8     ecut=    50.00 Ry     beta=0.70
     Davidson diagonalization with overlap
     ethr =  4.73E-09,  avg # of iterations =  2.1

     total cpu time spent up to now is     2416.0 secs

     total energy              =    -318.48539329 Ry
     Harris-Foulkes estimate   =    -318.48539224 Ry
     estimated scf accuracy    <       0.00000161 Ry

     iteration #  9     ecut=    50.00 Ry     beta=0.70
     Davidson diagonalization with overlap
     ethr =  4.73E-09,  avg # of iterations =  2.0

     total cpu time spent up to now is     2549.6 secs

     total energy              =    -318.48539211 Ry
     Harris-Foulkes estimate   =    -318.48539350 Ry
     estimated scf accuracy    <       0.00000356 Ry

     iteration # 10     ecut=    50.00 Ry     beta=0.70
     Davidson diagonalization with overlap
     ethr =  4.73E-09,  avg # of iterations =  2.0

     total cpu time spent up to now is     2696.1 secs

     total energy              =    -318.48539153 Ry
     Harris-Foulkes estimate   =    -318.48539228 Ry
     estimated scf accuracy    <       0.00000108 Ry

     iteration # 11     ecut=    50.00 Ry     beta=0.70
     Davidson diagonalization with overlap
     ethr =  3.87E-09,  avg # of iterations =  2.0

     total cpu time spent up to now is     2852.9 secs

     End of self-consistent calculation

     Number of k-points >= 100: set verbosity='high' to print the bands.

     the Fermi energy is     9.8908 ev

!    total energy              =    -318.48539177 Ry
     Harris-Foulkes estimate   =    -318.48539177 Ry
     estimated scf accuracy    <          2.5E-09 Ry

     The total energy is the sum of the following terms:

     one-electron contribution =    -116.96903680 Ry
     hartree contribution      =      78.11228014 Ry
     xc contribution           =     -85.96542673 Ry
     ewald contribution        =    -193.66342683 Ry
     smearing contrib. (-TS)   =       0.00021844 Ry

     convergence has been achieved in  11 iterations

     Forces acting on atoms (cartesian axes, Ry/au):

     atom    1 type  1   force =     0.00000163   -0.00000179    0.00000013
     atom    2 type  1   force =    -0.00000163    0.00000179   -0.00000013

     Total force =     0.000003     Total SCF correction =     0.000000


     Computing stress (Cartesian axis) and pressure

          total   stress  (Ry/bohr**3)                   (kbar)     P=  -27.06
  -0.00018973   0.00000000   0.00000000        -27.91      0.00      0.00
   0.00000000  -0.00018973   0.00000000          0.00    -27.91      0.00
   0.00000000   0.00000000  -0.00017243          0.00      0.00    -25.36


     number of scf cycles    =   2
     number of bfgs steps    =   1

     enthalpy old            =    -318.4839596874 Ry
     enthalpy new            =    -318.4853917685 Ry

     CASE: enthalpy_new < enthalpy_old

     new trust radius        =       0.0350654180 bohr
     new conv_thr            =            1.0E-10 Ry

     new unit-cell volume =    377.33642 a.u.^3 (    55.91549 Ang^3 )
     density =      7.05073 g/cm^3

CELL_PARAMETERS (alat= 11.23746432)
   0.994789334   0.000000033   0.000000098
   0.000000033   0.994789292   0.000000094
   0.497394710   0.497394688   0.268696294

ATOMIC_POSITIONS (crystal)
Sn       0.624998918   0.875001026   0.750000141
Sn       0.375001082   0.124998974   0.249999859



     Writing output data file sn.beta.relax.save
     NEW-OLD atomic charge density approx. for the potential
     extrapolated charge   27.31462, renormalised to   28.00000

     total cpu time spent up to now is     2887.5 secs

     per-process dynamical memory:   323.3 Mb

     Self-consistent Calculation

     iteration #  1     ecut=    50.00 Ry     beta=0.70
     Davidson diagonalization with overlap
     ethr =  1.00E-06,  avg # of iterations =  5.1

     total cpu time spent up to now is     3133.6 secs

     total energy              =    -318.40080795 Ry
     Harris-Foulkes estimate   =    -320.96784281 Ry
     estimated scf accuracy    <       0.05625621 Ry

     iteration #  2     ecut=    50.00 Ry     beta=0.70
     Davidson diagonalization with overlap
     ethr =  2.01E-04,  avg # of iterations =  3.1

     total cpu time spent up to now is     3336.1 secs

     total energy              =    -318.48463510 Ry
     Harris-Foulkes estimate   =    -318.52479451 Ry
     estimated scf accuracy    <       0.08142772 Ry

     iteration #  3     ecut=    50.00 Ry     beta=0.70
     Davidson diagonalization with overlap
     ethr =  2.01E-04,  avg # of iterations =  2.0

     total cpu time spent up to now is     3483.2 secs

     total energy              =    -318.48790685 Ry
     Harris-Foulkes estimate   =    -318.49200915 Ry
     estimated scf accuracy    <       0.01160913 Ry

     iteration #  4     ecut=    50.00 Ry     beta=0.70
     Davidson diagonalization with overlap
     ethr =  4.15E-05,  avg # of iterations =  1.1

     total cpu time spent up to now is     3605.1 secs

     total energy              =    -318.48664005 Ry
     Harris-Foulkes estimate   =    -318.48845474 Ry
     estimated scf accuracy    <       0.00400315 Ry

     iteration #  5     ecut=    50.00 Ry     beta=0.70
     Davidson diagonalization with overlap
     ethr =  1.43E-05,  avg # of iterations =  1.8

     total cpu time spent up to now is     3731.6 secs

     total energy              =    -318.48657769 Ry
     Harris-Foulkes estimate   =    -318.48699183 Ry
     estimated scf accuracy    <       0.00074198 Ry

     iteration #  6     ecut=    50.00 Ry     beta=0.70
     Davidson diagonalization with overlap
     ethr =  2.65E-06,  avg # of iterations =  3.0

     total cpu time spent up to now is     3911.6 secs

     total energy              =    -318.48677997 Ry
     Harris-Foulkes estimate   =    -318.48680550 Ry
     estimated scf accuracy    <       0.00003419 Ry

     iteration #  7     ecut=    50.00 Ry     beta=0.70
     Davidson diagonalization with overlap
     ethr =  1.22E-07,  avg # of iterations =  2.1

     total cpu time spent up to now is     4069.1 secs

     total energy              =    -318.48679139 Ry
     Harris-Foulkes estimate   =    -318.48679313 Ry
     estimated scf accuracy    <       0.00000534 Ry

     iteration #  8     ecut=    50.00 Ry     beta=0.70
     Davidson diagonalization with overlap
     ethr =  1.91E-08,  avg # of iterations =  2.0

     total cpu time spent up to now is     4198.9 secs

     total energy              =    -318.48679156 Ry
     Harris-Foulkes estimate   =    -318.48679175 Ry
     estimated scf accuracy    <       0.00000106 Ry

     iteration #  9     ecut=    50.00 Ry     beta=0.70
     Davidson diagonalization with overlap
     ethr =  3.80E-09,  avg # of iterations =  3.0

     total cpu time spent up to now is     4384.0 secs

     total energy              =    -318.48679284 Ry
     Harris-Foulkes estimate   =    -318.48679291 Ry
     estimated scf accuracy    <       0.00000262 Ry

     iteration # 10     ecut=    50.00 Ry     beta=0.70
     Davidson diagonalization with overlap
     ethr =  3.80E-09,  avg # of iterations =  1.0

     total cpu time spent up to now is     4505.2 secs

     total energy              =    -318.48679111 Ry
     Harris-Foulkes estimate   =    -318.48679285 Ry
     estimated scf accuracy    <       0.00000242 Ry

     iteration # 11     ecut=    50.00 Ry     beta=0.70
     Davidson diagonalization with overlap
     ethr =  3.80E-09,  avg # of iterations =  3.0

     total cpu time spent up to now is     4672.9 secs

     total energy              =    -318.48679170 Ry
     Harris-Foulkes estimate   =    -318.48679170 Ry
     estimated scf accuracy    <       0.00000001 Ry

     iteration # 12     ecut=    50.00 Ry     beta=0.70
     Davidson diagonalization with overlap
     ethr =  4.43E-11,  avg # of iterations =  2.0

     total cpu time spent up to now is     4806.6 secs

     total energy              =    -318.48679170 Ry
     Harris-Foulkes estimate   =    -318.48679171 Ry
     estimated scf accuracy    <          4.8E-09 Ry

     iteration # 13     ecut=    50.00 Ry     beta=0.70
     Davidson diagonalization with overlap
     ethr =  1.70E-11,  avg # of iterations =  2.3

     total cpu time spent up to now is     4965.5 secs

     total energy              =    -318.48679171 Ry
     Harris-Foulkes estimate   =    -318.48679171 Ry
     estimated scf accuracy    <          2.5E-09 Ry

     iteration # 14     ecut=    50.00 Ry     beta=0.70
     Davidson diagonalization with overlap
     ethr =  8.94E-12,  avg # of iterations =  2.0

     total cpu time spent up to now is     5099.3 secs

     End of self-consistent calculation

     Number of k-points >= 100: set verbosity='high' to print the bands.

     the Fermi energy is    10.2677 ev

!    total energy              =    -318.48679171 Ry
     Harris-Foulkes estimate   =    -318.48679171 Ry
     estimated scf accuracy    <          6.6E-11 Ry

     The total energy is the sum of the following terms:

     one-electron contribution =    -114.29068554 Ry
     hartree contribution      =      77.14811782 Ry
     xc contribution           =     -85.99342544 Ry
     ewald contribution        =    -195.35096237 Ry
     smearing contrib. (-TS)   =       0.00016383 Ry

     convergence has been achieved in  14 iterations

     Forces acting on atoms (cartesian axes, Ry/au):

     atom    1 type  1   force =     0.00000159   -0.00000171    0.00000032
     atom    2 type  1   force =    -0.00000159    0.00000171   -0.00000032

     Total force =     0.000003     Total SCF correction =     0.000000


     Computing stress (Cartesian axis) and pressure

          total   stress  (Ry/bohr**3)                   (kbar)     P=  -13.84
  -0.00009801   0.00000000  -0.00000000        -14.42      0.00     -0.00
   0.00000000  -0.00009800  -0.00000000          0.00    -14.42     -0.00
  -0.00000000  -0.00000000  -0.00008615         -0.00     -0.00    -12.67


     number of scf cycles    =   3
     number of bfgs steps    =   2

     enthalpy old            =    -318.4853917685 Ry
     enthalpy new            =    -318.4867917056 Ry

     CASE: enthalpy_new < enthalpy_old

     new trust radius        =       0.0355107746 bohr
     new conv_thr            =            1.0E-10 Ry

     new unit-cell volume =    367.45304 a.u.^3 (    54.45092 Ang^3 )
     density =      7.24038 g/cm^3

CELL_PARAMETERS (alat= 11.23746432)
   0.985696549   0.000000105  -0.000000088
   0.000000105   0.985696617  -0.000000054
   0.492848303   0.492848346   0.266507997

ATOMIC_POSITIONS (crystal)
Sn       0.624999199   0.875000461   0.750000391
Sn       0.375000801   0.124999539   0.249999609



     Writing output data file sn.beta.relax.save
     NEW-OLD atomic charge density approx. for the potential
     extrapolated charge   27.30068, renormalised to   28.00000

     total cpu time spent up to now is     5135.4 secs

     per-process dynamical memory:   323.3 Mb

     Self-consistent Calculation

     iteration #  1     ecut=    50.00 Ry     beta=0.70
     Davidson diagonalization with overlap
     ethr =  1.00E-06,  avg # of iterations =  5.2

     total cpu time spent up to now is     5383.3 secs

     total energy              =    -318.39883419 Ry
     Harris-Foulkes estimate   =    -320.96860599 Ry
     estimated scf accuracy    <       0.05787173 Ry

     iteration #  2     ecut=    50.00 Ry     beta=0.70
     Davidson diagonalization with overlap
     ethr =  2.07E-04,  avg # of iterations =  3.1

     total cpu time spent up to now is     5583.5 secs

     total energy              =    -318.48496614 Ry
     Harris-Foulkes estimate   =    -318.52617494 Ry
     estimated scf accuracy    <       0.08352436 Ry

     iteration #  3     ecut=    50.00 Ry     beta=0.70
     Davidson diagonalization with overlap
     ethr =  2.07E-04,  avg # of iterations =  2.0

     total cpu time spent up to now is     5729.3 secs

     total energy              =    -318.48831800 Ry
     Harris-Foulkes estimate   =    -318.49253468 Ry
     estimated scf accuracy    <       0.01188675 Ry

     iteration #  4     ecut=    50.00 Ry     beta=0.70
     Davidson diagonalization with overlap
     ethr =  4.25E-05,  avg # of iterations =  1.1

     total cpu time spent up to now is     5849.7 secs

     total energy              =    -318.48701942 Ry
     Harris-Foulkes estimate   =    -318.48888240 Ry
     estimated scf accuracy    <       0.00407402 Ry

     iteration #  5     ecut=    50.00 Ry     beta=0.70
     Davidson diagonalization with overlap
     ethr =  1.46E-05,  avg # of iterations =  1.9

     total cpu time spent up to now is     5977.1 secs

     total energy              =    -318.48694860 Ry
     Harris-Foulkes estimate   =    -318.48738855 Ry
     estimated scf accuracy    <       0.00073009 Ry

     iteration #  6     ecut=    50.00 Ry     beta=0.70
     Davidson diagonalization with overlap
     ethr =  2.61E-06,  avg # of iterations =  3.1

     total cpu time spent up to now is     6156.8 secs

     total energy              =    -318.48718293 Ry
     Harris-Foulkes estimate   =    -318.48719398 Ry
     estimated scf accuracy    <       0.00001518 Ry

     iteration #  7     ecut=    50.00 Ry     beta=0.70
     Davidson diagonalization with overlap
     ethr =  5.42E-08,  avg # of iterations =  3.0

     total cpu time spent up to now is     6322.1 secs

     total energy              =    -318.48718828 Ry
     Harris-Foulkes estimate   =    -318.48719169 Ry
     estimated scf accuracy    <       0.00000773 Ry

     iteration #  8     ecut=    50.00 Ry     beta=0.70
     Davidson diagonalization with overlap
     ethr =  2.76E-08,  avg # of iterations =  2.0

     total cpu time spent up to now is     6452.5 secs

     total energy              =    -318.48718899 Ry
     Harris-Foulkes estimate   =    -318.48718904 Ry
     estimated scf accuracy    <       0.00000090 Ry

     iteration #  9     ecut=    50.00 Ry     beta=0.70
     Davidson diagonalization with overlap
     ethr =  3.22E-09,  avg # of iterations =  3.0

     total cpu time spent up to now is     6640.8 secs

     total energy              =    -318.48719019 Ry
     Harris-Foulkes estimate   =    -318.48719051 Ry
     estimated scf accuracy    <       0.00000307 Ry

     iteration # 10     ecut=    50.00 Ry     beta=0.70
     Davidson diagonalization with overlap
     ethr =  3.22E-09,  avg # of iterations =  1.0

     total cpu time spent up to now is     6761.9 secs

     total energy              =    -318.48718848 Ry
     Harris-Foulkes estimate   =    -318.48719020 Ry
     estimated scf accuracy    <       0.00000240 Ry

     iteration # 11     ecut=    50.00 Ry     beta=0.70
     Davidson diagonalization with overlap
     ethr =  3.22E-09,  avg # of iterations =  3.0

     total cpu time spent up to now is     6940.8 secs

     total energy              =    -318.48718908 Ry
     Harris-Foulkes estimate   =    -318.48718908 Ry
     estimated scf accuracy    <       0.00000001 Ry

     iteration # 12     ecut=    50.00 Ry     beta=0.70
     Davidson diagonalization with overlap
     ethr =  3.76E-11,  avg # of iterations =  2.0

     total cpu time spent up to now is     7074.3 secs

     total energy              =    -318.48718908 Ry
     Harris-Foulkes estimate   =    -318.48718908 Ry
     estimated scf accuracy    <          3.6E-09 Ry

     iteration # 13     ecut=    50.00 Ry     beta=0.70
     Davidson diagonalization with overlap
     ethr =  1.29E-11,  avg # of iterations =  2.1

     total cpu time spent up to now is     7231.9 secs

     total energy              =    -318.48718908 Ry
     Harris-Foulkes estimate   =    -318.48718908 Ry
     estimated scf accuracy    <          5.8E-10 Ry

     iteration # 14     ecut=    50.00 Ry     beta=0.70
     Davidson diagonalization with overlap
     ethr =  2.06E-12,  avg # of iterations =  2.0

     total cpu time spent up to now is     7361.8 secs

     End of self-consistent calculation

     Number of k-points >= 100: set verbosity='high' to print the bands.

     the Fermi energy is    10.6623 ev

!    total energy              =    -318.48718908 Ry
     Harris-Foulkes estimate   =    -318.48718908 Ry
     estimated scf accuracy    <          6.3E-11 Ry

     The total energy is the sum of the following terms:

     one-electron contribution =    -111.54171333 Ry
     hartree contribution      =      76.16494917 Ry
     xc contribution           =     -86.02299297 Ry
     ewald contribution        =    -197.08754373 Ry
     smearing contrib. (-TS)   =       0.00011178 Ry

     convergence has been achieved in  14 iterations

     Forces acting on atoms (cartesian axes, Ry/au):

     atom    1 type  1   force =     0.00000089   -0.00000097   -0.00000077
     atom    2 type  1   force =    -0.00000089    0.00000097    0.00000077

     Total force =     0.000002     Total SCF correction =     0.000000


     Computing stress (Cartesian axis) and pressure

          total   stress  (Ry/bohr**3)                   (kbar)     P=    2.11
   0.00001315  -0.00000000   0.00000001          1.93     -0.00      0.00
  -0.00000000   0.00001315   0.00000001         -0.00      1.93      0.00
   0.00000001   0.00000001   0.00001682          0.00      0.00      2.47


     number of scf cycles    =   4
     number of bfgs steps    =   3

     enthalpy old            =    -318.4867917056 Ry
     enthalpy new            =    -318.4871890813 Ry

     CASE: enthalpy_new < enthalpy_old

     new trust radius        =       0.0044369112 bohr
     new conv_thr            =            1.0E-10 Ry

     new unit-cell volume =    368.72457 a.u.^3 (    54.63934 Ang^3 )
     density =      7.21541 g/cm^3

CELL_PARAMETERS (alat= 11.23746432)
   0.986837306   0.000000034   0.000000154
   0.000000034   0.986837346   0.000000141
   0.493418711   0.493418728   0.266812519

ATOMIC_POSITIONS (crystal)
Sn       0.624999348   0.875000544   0.750000157
Sn       0.375000652   0.124999456   0.249999843



     Writing output data file sn.beta.relax.save
     NEW-OLD atomic charge density approx. for the potential
     extrapolated charge   28.08966, renormalised to   28.00000

     total cpu time spent up to now is     7396.1 secs

     per-process dynamical memory:   323.3 Mb

     Self-consistent Calculation

     iteration #  1     ecut=    50.00 Ry     beta=0.70
     Davidson diagonalization with overlap
     ethr =  1.00E-06,  avg # of iterations =  3.0

     total cpu time spent up to now is     7599.6 secs

     total energy              =    -318.48568081 Ry
     Harris-Foulkes estimate   =    -318.16804466 Ry
     estimated scf accuracy    <       0.00097262 Ry

     iteration #  2     ecut=    50.00 Ry     beta=0.70
     Davidson diagonalization with overlap
     ethr =  3.47E-06,  avg # of iterations =  3.0

     total cpu time spent up to now is     7797.6 secs

     total energy              =    -318.48717890 Ry
     Harris-Foulkes estimate   =    -318.48788754 Ry
     estimated scf accuracy    <       0.00144395 Ry

     iteration #  3     ecut=    50.00 Ry     beta=0.70
     Davidson diagonalization with overlap
     ethr =  3.47E-06,  avg # of iterations =  2.0

     total cpu time spent up to now is     7942.7 secs

     total energy              =    -318.48721781 Ry
     Harris-Foulkes estimate   =    -318.48730287 Ry
     estimated scf accuracy    <       0.00022224 Ry

     iteration #  4     ecut=    50.00 Ry     beta=0.70
     Davidson diagonalization with overlap
     ethr =  7.94E-07,  avg # of iterations =  1.0

     total cpu time spent up to now is     8062.9 secs

     total energy              =    -318.48720224 Ry
     Harris-Foulkes estimate   =    -318.48722938 Ry
     estimated scf accuracy    <       0.00006813 Ry

     iteration #  5     ecut=    50.00 Ry     beta=0.70
     Davidson diagonalization with overlap
     ethr =  2.43E-07,  avg # of iterations =  1.3

     total cpu time spent up to now is     8185.7 secs

     total energy              =    -318.48719681 Ry
     Harris-Foulkes estimate   =    -318.48720715 Ry
     estimated scf accuracy    <       0.00001714 Ry

     iteration #  6     ecut=    50.00 Ry     beta=0.70
     Davidson diagonalization with overlap
     ethr =  6.12E-08,  avg # of iterations =  3.0

     total cpu time spent up to now is     8362.1 secs

     total energy              =    -318.48720131 Ry
     Harris-Foulkes estimate   =    -318.48720167 Ry
     estimated scf accuracy    <       0.00000045 Ry

     iteration #  7     ecut=    50.00 Ry     beta=0.70
     Davidson diagonalization with overlap
     ethr =  1.62E-09,  avg # of iterations =  3.0

     total cpu time spent up to now is     8550.0 secs

     total energy              =    -318.48720201 Ry
     Harris-Foulkes estimate   =    -318.48720178 Ry
     estimated scf accuracy    <       0.00000055 Ry

     iteration #  8     ecut=    50.00 Ry     beta=0.70
     Davidson diagonalization with overlap
     ethr =  1.62E-09,  avg # of iterations =  1.0

     total cpu time spent up to now is     8669.0 secs

     total energy              =    -318.48720134 Ry
     Harris-Foulkes estimate   =    -318.48720203 Ry
     estimated scf accuracy    <       0.00000105 Ry

     iteration #  9     ecut=    50.00 Ry     beta=0.70
     Davidson diagonalization with overlap
     ethr =  1.62E-09,  avg # of iterations =  2.0

     total cpu time spent up to now is     8824.4 secs

     total energy              =    -318.48720156 Ry
     Harris-Foulkes estimate   =    -318.48720155 Ry
     estimated scf accuracy    <       0.00000005 Ry

     iteration # 10     ecut=    50.00 Ry     beta=0.70
     Davidson diagonalization with overlap
     ethr =  1.70E-10,  avg # of iterations =  3.0

     total cpu time spent up to now is     9005.0 secs

     total energy              =    -318.48720150 Ry
     Harris-Foulkes estimate   =    -318.48720160 Ry
     estimated scf accuracy    <       0.00000014 Ry

     iteration # 11     ecut=    50.00 Ry     beta=0.70
     Davidson diagonalization with overlap
     ethr =  1.70E-10,  avg # of iterations =  3.0

     total cpu time spent up to now is     9176.7 secs

     total energy              =    -318.48720153 Ry
     Harris-Foulkes estimate   =    -318.48720153 Ry
     estimated scf accuracy    <          3.1E-10 Ry

     iteration # 12     ecut=    50.00 Ry     beta=0.70
     Davidson diagonalization with overlap
     ethr =  1.12E-12,  avg # of iterations =  2.5

     total cpu time spent up to now is     9338.1 secs

     total energy              =    -318.48720153 Ry
     Harris-Foulkes estimate   =    -318.48720153 Ry
     estimated scf accuracy    <          6.0E-10 Ry

     iteration # 13     ecut=    50.00 Ry     beta=0.70
     Davidson diagonalization with overlap
     ethr =  1.12E-12,  avg # of iterations =  1.0

     total cpu time spent up to now is     9459.1 secs

     total energy              =    -318.48720153 Ry
     Harris-Foulkes estimate   =    -318.48720153 Ry
     estimated scf accuracy    <          2.6E-10 Ry

     iteration # 14     ecut=    50.00 Ry     beta=0.70
     Davidson diagonalization with overlap
     ethr =  9.20E-13,  avg # of iterations =  2.0

     total cpu time spent up to now is     9592.7 secs

     End of self-consistent calculation

     Number of k-points >= 100: set verbosity='high' to print the bands.

     the Fermi energy is    10.6104 ev

!    total energy              =    -318.48720153 Ry
     Harris-Foulkes estimate   =    -318.48720153 Ry
     estimated scf accuracy    <          3.0E-13 Ry

     The total energy is the sum of the following terms:

     one-electron contribution =    -111.90037315 Ry
     hartree contribution      =      76.29287914 Ry
     xc contribution           =     -86.01910075 Ry
     ewald contribution        =    -196.86072466 Ry
     smearing contrib. (-TS)   =       0.00011789 Ry

     convergence has been achieved in  14 iterations

     Forces acting on atoms (cartesian axes, Ry/au):

     atom    1 type  1   force =     0.00000040   -0.00000092    0.00000112
     atom    2 type  1   force =    -0.00000040    0.00000092   -0.00000112

     Total force =     0.000002     Total SCF correction =     0.000000


     Computing stress (Cartesian axis) and pressure

          total   stress  (Ry/bohr**3)                   (kbar)     P=    0.04
  -0.00000106   0.00000000  -0.00000000         -0.16      0.00     -0.00
   0.00000000  -0.00000107  -0.00000000          0.00     -0.16     -0.00
  -0.00000000  -0.00000000   0.00000300         -0.00     -0.00      0.44


     bfgs converged in   5 scf cycles and   4 bfgs steps
     (criteria: energy <  1.0E-04 Ry, force <  1.0E-03Ry/Bohr, cell <  5.0E-01kbar)

     End of BFGS Geometry Optimization

     Final enthalpy =    -318.4872015293 Ry
Begin final coordinates
     new unit-cell volume =    368.72457 a.u.^3 (    54.63934 Ang^3 )
     density =      7.21541 g/cm^3

CELL_PARAMETERS (alat= 11.23746432)
   0.986837306   0.000000034   0.000000154
   0.000000034   0.986837346   0.000000141
   0.493418711   0.493418728   0.266812519

ATOMIC_POSITIONS (crystal)
Sn       0.624999348   0.875000544   0.750000157
Sn       0.375000652   0.124999456   0.249999843
End final coordinates



     A final scf calculation at the relaxed structure.
     The G-vectors are recalculated for the final unit cell
     Results may differ from those at the preceding step.

     Parallelization info
     --------------------
     sticks:   dense  smooth     PW     G-vecs:    dense   smooth      PW
     Min        1223     485    198                17397     4394    1122
     Max        1226     486    199                17398     4395    1123
     Sum        4897    1941    793                69589    17577    4489



     bravais-lattice index     =            0
     lattice parameter (alat)  =      11.2375  a.u.
     unit-cell volume          =     368.7246 (a.u.)^3
     number of atoms/cell      =            2
     number of atomic types    =            1
     number of electrons       =        28.00
     number of Kohn-Sham states=           18
     kinetic-energy cutoff     =      50.0000  Ry
     charge density cutoff     =     500.0000  Ry
     convergence threshold     =      1.0E-10
     mixing beta               =       0.7000
     number of iterations used =            8  plain     mixing
     Exchange-correlation      =  SLA  PW   PBX  PBC ( 1  4  3  4 0 0)

     celldm(1)=  11.237464  celldm(2)=   0.000000  celldm(3)=   0.000000
     celldm(4)=   0.000000  celldm(5)=   0.000000  celldm(6)=   0.000000

     crystal axes: (cart. coord. in units of alat)
               a(1) = (   0.986837   0.000000   0.000000 )  
               a(2) = (   0.000000   0.986837   0.000000 )  
               a(3) = (   0.493419   0.493419   0.266813 )  

     reciprocal axes: (cart. coord. in units 2 pi/alat)
               b(1) = (  1.013339  0.000000 -1.873976 )  
               b(2) = (  0.000000  1.013338 -1.873976 )  
               b(3) = ( -0.000001 -0.000001  3.747952 )  


     PseudoPot. # 1 for Sn read from file:
     /home/s1333534/quantum_espresso/qe-6.1/pseudo/sn_pbe_v1.4.uspp.F.UPF
     MD5 check sum: 469debedee59599fedebd795477fea03
     Pseudo is Ultrasoft + core correction, Zval = 14.0
     Generated by new atomic code, or converted to UPF format
     Using radial grid of  891 points,  6 beta functions with: 
                l(1) =   0
                l(2) =   0
                l(3) =   1
                l(4) =   1
                l(5) =   2
                l(6) =   2
     Q(r) pseudized with  8 coefficients,  rinner =    1.350   1.350   1.350
                                                       1.350   1.350

     atomic species   valence    mass     pseudopotential
        Sn            14.00   118.71000     Sn( 1.00)

      2 Sym. Ops., with inversion, found
          (note: 12 additional sym.ops. were found but ignored
           their fractional translations are incommensurate with FFT grid)


   Cartesian axes

     site n.     atom                  positions (alat units)
         1           Sn  tau(   1) = (   0.9868368   1.2335474   0.2001097  )
         2           Sn  tau(   2) = (   0.4934192   0.2467087   0.0667032  )

     number of k points=  1568  Marzari-Vanderbilt smearing, width (Ry)=  0.0200

     Number of k-points >= 100: set verbosity='high' to print them.

     Dense  grid:    69589 G-vectors     FFT dimensions: (  80,  80,  60)

     Smooth grid:    17577 G-vectors     FFT dimensions: (  50,  50,  40)

     Estimated max dynamical RAM per process >     252.16MB

     Estimated total allocated dynamical RAM >    1008.62MB

     Initial potential from superposition of free atoms

     starting charge   25.99991, renormalised to   28.00000
     Starting wfc are   18 randomized atomic wfcs

     Writing output data file sn.beta.relax.save

     total cpu time spent up to now is     9677.7 secs

     per-process dynamical memory:   297.5 Mb

     Self-consistent Calculation

     iteration #  1     ecut=    50.00 Ry     beta=0.70
     Davidson diagonalization with overlap
     c_bands:  1 eigenvalues not converged
     c_bands:  1 eigenvalues not converged
     c_bands:  1 eigenvalues not converged
     c_bands:  1 eigenvalues not converged
     c_bands:  1 eigenvalues not converged
     c_bands:  1 eigenvalues not converged
     c_bands:  1 eigenvalues not converged
     c_bands:  1 eigenvalues not converged
     c_bands:  1 eigenvalues not converged
     c_bands:  1 eigenvalues not converged
     c_bands:  1 eigenvalues not converged
     c_bands:  1 eigenvalues not converged
     c_bands:  1 eigenvalues not converged
     c_bands:  1 eigenvalues not converged
     c_bands:  1 eigenvalues not converged
     ethr =  1.00E-06,  avg # of iterations = 11.2

     total cpu time spent up to now is     9972.5 secs

     total energy              =    -317.55670870 Ry
     Harris-Foulkes estimate   =    -319.50191166 Ry
     estimated scf accuracy    <       2.38219513 Ry

     iteration #  2     ecut=    50.00 Ry     beta=0.70
     Davidson diagonalization with overlap
     ethr =  8.51E-03,  avg # of iterations =  2.7

     total cpu time spent up to now is    10100.0 secs

     total energy              =    -318.40083394 Ry
     Harris-Foulkes estimate   =    -318.67781193 Ry
     estimated scf accuracy    <       0.40277284 Ry

     iteration #  3     ecut=    50.00 Ry     beta=0.70
     Davidson diagonalization with overlap
     ethr =  1.44E-03,  avg # of iterations =  2.0

     total cpu time spent up to now is    10221.7 secs

     total energy              =    -318.48317535 Ry
     Harris-Foulkes estimate   =    -318.48431108 Ry
     estimated scf accuracy    <       0.00209628 Ry

     iteration #  4     ecut=    50.00 Ry     beta=0.70
     Davidson diagonalization with overlap
     ethr =  7.49E-06,  avg # of iterations =  3.5

     total cpu time spent up to now is    10358.7 secs

     total energy              =    -318.48366364 Ry
     Harris-Foulkes estimate   =    -318.48373883 Ry
     estimated scf accuracy    <       0.00011068 Ry

     iteration #  5     ecut=    50.00 Ry     beta=0.70
     Davidson diagonalization with overlap
     ethr =  3.95E-07,  avg # of iterations =  2.0

     total cpu time spent up to now is    10482.8 secs

     total energy              =    -318.48369136 Ry
     Harris-Foulkes estimate   =    -318.48369127 Ry
     estimated scf accuracy    <       0.00000014 Ry

     iteration #  6     ecut=    50.00 Ry     beta=0.70
     Davidson diagonalization with overlap
     ethr =  4.89E-10,  avg # of iterations =  3.9

     total cpu time spent up to now is    10643.5 secs

     total energy              =    -318.48369153 Ry
     Harris-Foulkes estimate   =    -318.48369153 Ry
     estimated scf accuracy    <          7.9E-09 Ry

     iteration #  7     ecut=    50.00 Ry     beta=0.70
     Davidson diagonalization with overlap
     ethr =  2.81E-11,  avg # of iterations =  2.1

     total cpu time spent up to now is    10768.7 secs

     End of self-consistent calculation

     Number of k-points >= 100: set verbosity='high' to print the bands.

     the Fermi energy is    10.6103 ev

!    total energy              =    -318.48369153 Ry
     Harris-Foulkes estimate   =    -318.48369153 Ry
     estimated scf accuracy    <          4.3E-11 Ry

     The total energy is the sum of the following terms:

     one-electron contribution =    -111.89694875 Ry
     hartree contribution      =      76.29351762 Ry
     xc contribution           =     -86.01965365 Ry
     ewald contribution        =    -196.86072466 Ry
     smearing contrib. (-TS)   =       0.00011792 Ry

     convergence has been achieved in   7 iterations

     Forces acting on atoms (cartesian axes, Ry/au):

     atom    1 type  1   force =     0.00000089    0.00000137    0.00000063
     atom    2 type  1   force =    -0.00000089   -0.00000137   -0.00000063

     Total force =     0.000002     Total SCF correction =     0.000004
     SCF correction compared to forces is large: reduce conv_thr to get better values


     Computing stress (Cartesian axis) and pressure

          total   stress  (Ry/bohr**3)                   (kbar)     P=   -3.85
  -0.00002818  -0.00000000  -0.00000000         -4.15     -0.00     -0.00
  -0.00000000  -0.00002818  -0.00000000         -0.00     -4.15     -0.00
  -0.00000000  -0.00000000  -0.00002216         -0.00     -0.00     -3.26


     Writing output data file sn.beta.relax.save

     init_run     :     82.79s CPU     84.81s WALL (       2 calls)
     electrons    :  10269.43s CPU  10490.78s WALL (       6 calls)
     update_pot   :      5.29s CPU      5.56s WALL (       4 calls)
     forces       :     17.12s CPU     17.31s WALL (       6 calls)
     stress       :     69.40s CPU     69.90s WALL (       6 calls)

     Called by init_run:
     wfcinit      :     79.39s CPU     81.38s WALL (       2 calls)
     potinit      :      0.75s CPU      0.75s WALL (       2 calls)

     Called by electrons:
     c_bands      :   8369.35s CPU   8557.77s WALL (      66 calls)
     sum_band     :   1884.19s CPU   1916.01s WALL (      66 calls)
     v_of_rho     :      7.85s CPU      8.02s WALL (      72 calls)
     newd         :      7.68s CPU      8.22s WALL (      72 calls)
     mix_rho      :      0.90s CPU      0.94s WALL (      66 calls)

     Called by c_bands:
     init_us_2    :     76.38s CPU     77.60s WALL (  228928 calls)
     cegterg      :   8225.57s CPU   8411.74s WALL (  103488 calls)

     Called by sum_band:
     sum_band:bec :      1.39s CPU      1.54s WALL (  103488 calls)
     addusdens    :      8.87s CPU      9.90s WALL (      66 calls)

     Called by *egterg:
     h_psi        :   7654.23s CPU   7831.13s WALL (  371361 calls)
     s_psi        :     44.44s CPU     45.26s WALL (  371361 calls)
     g_psi        :     16.90s CPU     17.05s WALL (  264737 calls)
     cdiaghg      :    228.55s CPU    231.60s WALL (  361953 calls)

     Called by h_psi:
     h_psi:pot    :   7627.24s CPU   7803.87s WALL (  371361 calls)
     h_psi:calbec :    103.96s CPU    105.27s WALL (  371361 calls)
     vloc_psi     :   7466.00s CPU   7639.49s WALL (  371361 calls)
     add_vuspsi   :     57.02s CPU     57.76s WALL (  371361 calls)

     General routines
     calbec       :    146.02s CPU    147.61s WALL (  521889 calls)
     fft          :      6.42s CPU      6.78s WALL (    1282 calls)
     ffts         :      0.11s CPU      0.11s WALL (     138 calls)
     fftw         :   5841.19s CPU   5978.21s WALL (12752038 calls)
     interpolate  :      0.96s CPU      1.00s WALL (     138 calls)
     davcio       :      0.08s CPU      0.96s WALL (    3136 calls)

     Parallel routines
     fft_scatter  :   1155.48s CPU   1186.60s WALL (12753458 calls)

     PWSCF        :     2h54m CPU        3h 0m WALL


   This run was terminated on:  17:19: 6  12Nov2017            

=------------------------------------------------------------------------------=
   JOB DONE.
=------------------------------------------------------------------------------=
