
     Program PWSCF v.6.1 (svn rev. 13369) starts on 12Nov2017 at 13: 1: 0 

     This program is part of the open-source Quantum ESPRESSO suite
     for quantum simulation of materials; please cite
         "P. Giannozzi et al., J. Phys.:Condens. Matter 21 395502 (2009);
          URL http://www.quantum-espresso.org", 
     in publications or presentations arising from this work. More details at
     http://www.quantum-espresso.org/quote

     Parallel version (MPI), running on     4 processors
     R & G space division:  proc/nbgrp/npool/nimage =       4
     Waiting for input...
     Reading input from standard input
     Message from routine read_cards :
     DEPRECATED: no units specified in ATOMIC_POSITIONS card
     Message from routine read_cards :
     ATOMIC_POSITIONS: units set to alat

     Current dimensions of program PWSCF are:
     Max number of different atomic species (ntypx) = 10
     Max number of k-points (npk) =  40000
     Max angular momentum in pseudopotentials (lmaxx) =  3

     Subspace diagonalization in iterative solution of the eigenvalue problem:
     a serial algorithm will be used


     Parallelization info
     --------------------
     sticks:   dense  smooth     PW     G-vecs:    dense   smooth      PW
     Min         693     348    105                24225     8581    1399
     Max         694     349    106                24229     8583    1402
     Sum        2773    1393    421                96905    34327    5601



     bravais-lattice index     =            2
     lattice parameter (alat)  =      12.5650  a.u.
     unit-cell volume          =     495.9381 (a.u.)^3
     number of atoms/cell      =            2
     number of atomic types    =            1
     number of electrons       =        28.00
     number of Kohn-Sham states=           14
     kinetic-energy cutoff     =      64.0000  Ry
     charge density cutoff     =     512.0000  Ry
     convergence threshold     =      1.0E-08
     mixing beta               =       0.7000
     number of iterations used =            8  plain     mixing
     Exchange-correlation      =  SLA  PW   PBX  PBC ( 1  4  3  4 0 0)

     celldm(1)=  12.565000  celldm(2)=   0.000000  celldm(3)=   0.000000
     celldm(4)=   0.000000  celldm(5)=   0.000000  celldm(6)=   0.000000

     crystal axes: (cart. coord. in units of alat)
               a(1) = (  -0.500000   0.000000   0.500000 )  
               a(2) = (   0.000000   0.500000   0.500000 )  
               a(3) = (  -0.500000   0.500000   0.000000 )  

     reciprocal axes: (cart. coord. in units 2 pi/alat)
               b(1) = ( -1.000000 -1.000000  1.000000 )  
               b(2) = (  1.000000  1.000000  1.000000 )  
               b(3) = ( -1.000000  1.000000 -1.000000 )  


     PseudoPot. # 1 for Sn read from file:
     /home/s1333534/quantum_espresso/qe-6.1/pseudo/sn_pbe_v1.4.uspp.F.UPF
     MD5 check sum: 469debedee59599fedebd795477fea03
     Pseudo is Ultrasoft + core correction, Zval = 14.0
     Generated by new atomic code, or converted to UPF format
     Using radial grid of  891 points,  6 beta functions with: 
                l(1) =   0
                l(2) =   0
                l(3) =   1
                l(4) =   1
                l(5) =   2
                l(6) =   2
     Q(r) pseudized with  8 coefficients,  rinner =    1.350   1.350   1.350
                                                       1.350   1.350

     atomic species   valence    mass     pseudopotential
        Sn            14.00   118.71000     Sn( 1.00)

     48 Sym. Ops., with inversion, found (24 have fractional translation)



   Cartesian axes

     site n.     atom                  positions (alat units)
         1           Sn  tau(   1) = (   0.0000000   0.0000000   0.0000000  )
         2           Sn  tau(   2) = (   0.2500000   0.2500000   0.2500000  )

     number of k points=    60
                       cart. coord. in units 2pi/alat
        k(    1) = (  -0.0625000   0.0625000   0.0625000), wk =   0.0078125
        k(    2) = (  -0.1875000   0.1875000  -0.0625000), wk =   0.0234375
        k(    3) = (  -0.3125000   0.3125000  -0.1875000), wk =   0.0234375
        k(    4) = (  -0.4375000   0.4375000  -0.3125000), wk =   0.0234375
        k(    5) = (   0.4375000  -0.4375000   0.5625000), wk =   0.0234375
        k(    6) = (   0.3125000  -0.3125000   0.4375000), wk =   0.0234375
        k(    7) = (   0.1875000  -0.1875000   0.3125000), wk =   0.0234375
        k(    8) = (   0.0625000  -0.0625000   0.1875000), wk =   0.0234375
        k(    9) = (  -0.0625000   0.3125000   0.0625000), wk =   0.0234375
        k(   10) = (  -0.1875000   0.4375000  -0.0625000), wk =   0.0468750
        k(   11) = (  -0.3125000   0.5625000  -0.1875000), wk =   0.0468750
        k(   12) = (   0.5625000  -0.3125000   0.6875000), wk =   0.0468750
        k(   13) = (   0.4375000  -0.1875000   0.5625000), wk =   0.0468750
        k(   14) = (   0.3125000  -0.0625000   0.4375000), wk =   0.0468750
        k(   15) = (   0.1875000   0.0625000   0.3125000), wk =   0.0468750
        k(   16) = (  -0.0625000   0.5625000   0.0625000), wk =   0.0234375
        k(   17) = (  -0.1875000   0.6875000  -0.0625000), wk =   0.0468750
        k(   18) = (   0.6875000  -0.1875000   0.8125000), wk =   0.0468750
        k(   19) = (   0.5625000  -0.0625000   0.6875000), wk =   0.0468750
        k(   20) = (   0.4375000   0.0625000   0.5625000), wk =   0.0468750
        k(   21) = (   0.3125000   0.1875000   0.4375000), wk =   0.0468750
        k(   22) = (  -0.0625000   0.8125000   0.0625000), wk =   0.0234375
        k(   23) = (   0.8125000  -0.0625000   0.9375000), wk =   0.0468750
        k(   24) = (   0.6875000   0.0625000   0.8125000), wk =   0.0468750
        k(   25) = (   0.5625000   0.1875000   0.6875000), wk =   0.0468750
        k(   26) = (   0.4375000   0.3125000   0.5625000), wk =   0.0468750
        k(   27) = (  -0.0625000  -0.9375000   0.0625000), wk =   0.0234375
        k(   28) = (  -0.1875000  -0.8125000  -0.0625000), wk =   0.0468750
        k(   29) = (  -0.3125000  -0.6875000  -0.1875000), wk =   0.0468750
        k(   30) = (  -0.0625000  -0.6875000   0.0625000), wk =   0.0234375
        k(   31) = (  -0.1875000  -0.5625000  -0.0625000), wk =   0.0468750
        k(   32) = (  -0.0625000  -0.4375000   0.0625000), wk =   0.0234375
        k(   33) = (  -0.1875000   0.1875000   0.1875000), wk =   0.0078125
        k(   34) = (  -0.3125000   0.3125000   0.0625000), wk =   0.0234375
        k(   35) = (  -0.4375000   0.4375000  -0.0625000), wk =   0.0234375
        k(   36) = (   0.4375000  -0.4375000   0.8125000), wk =   0.0234375
        k(   37) = (   0.3125000  -0.3125000   0.6875000), wk =   0.0234375
        k(   38) = (   0.1875000  -0.1875000   0.5625000), wk =   0.0234375
        k(   39) = (  -0.1875000   0.4375000   0.1875000), wk =   0.0234375
        k(   40) = (  -0.3125000   0.5625000   0.0625000), wk =   0.0468750
        k(   41) = (   0.5625000  -0.3125000   0.9375000), wk =   0.0468750
        k(   42) = (   0.4375000  -0.1875000   0.8125000), wk =   0.0468750
        k(   43) = (   0.3125000  -0.0625000   0.6875000), wk =   0.0468750
        k(   44) = (  -0.1875000   0.6875000   0.1875000), wk =   0.0234375
        k(   45) = (   0.6875000  -0.1875000   1.0625000), wk =   0.0468750
        k(   46) = (   0.5625000  -0.0625000   0.9375000), wk =   0.0468750
        k(   47) = (   0.4375000   0.0625000   0.8125000), wk =   0.0468750
        k(   48) = (  -0.1875000  -1.0625000   0.1875000), wk =   0.0234375
        k(   49) = (  -0.3125000  -0.9375000   0.0625000), wk =   0.0468750
        k(   50) = (  -0.1875000  -0.8125000   0.1875000), wk =   0.0234375
        k(   51) = (  -0.3125000   0.3125000   0.3125000), wk =   0.0078125
        k(   52) = (  -0.4375000   0.4375000   0.1875000), wk =   0.0234375
        k(   53) = (   0.4375000  -0.4375000   1.0625000), wk =   0.0234375
        k(   54) = (   0.3125000  -0.3125000   0.9375000), wk =   0.0234375
        k(   55) = (  -0.3125000   0.5625000   0.3125000), wk =   0.0234375
        k(   56) = (   0.5625000  -0.3125000   1.1875000), wk =   0.0468750
        k(   57) = (   0.4375000  -0.1875000   1.0625000), wk =   0.0468750
        k(   58) = (  -0.3125000  -1.1875000   0.3125000), wk =   0.0234375
        k(   59) = (  -0.4375000   0.4375000   0.4375000), wk =   0.0078125
        k(   60) = (   0.4375000  -0.4375000   1.3125000), wk =   0.0234375

     Dense  grid:    96905 G-vectors     FFT dimensions: (  64,  64,  64)

     Smooth grid:    34327 G-vectors     FFT dimensions: (  45,  45,  45)

     Estimated max dynamical RAM per process >      30.58MB

     Estimated total allocated dynamical RAM >     122.32MB

     Initial potential from superposition of free atoms

     starting charge   25.99991, renormalised to   28.00000
     Starting wfc are   18 randomized atomic wfcs

     total cpu time spent up to now is        2.0 secs

     per-process dynamical memory:    33.6 Mb

     Self-consistent Calculation

     iteration #  1     ecut=    64.00 Ry     beta=0.70
     Davidson diagonalization with overlap
     ethr =  1.00E-02,  avg # of iterations =  2.6

     total cpu time spent up to now is        6.0 secs

     total energy              =    -317.49494590 Ry
     Harris-Foulkes estimate   =    -319.55599872 Ry
     estimated scf accuracy    <       2.51258065 Ry

     iteration #  2     ecut=    64.00 Ry     beta=0.70
     Davidson diagonalization with overlap
     ethr =  8.97E-03,  avg # of iterations =  3.0

     total cpu time spent up to now is       10.4 secs

     total energy              =    -318.40264069 Ry
     Harris-Foulkes estimate   =    -318.72026967 Ry
     estimated scf accuracy    <       0.47281482 Ry

     iteration #  3     ecut=    64.00 Ry     beta=0.70
     Davidson diagonalization with overlap
     ethr =  1.69E-03,  avg # of iterations =  2.0

     total cpu time spent up to now is       14.2 secs

     total energy              =    -318.49757087 Ry
     Harris-Foulkes estimate   =    -318.49912350 Ry
     estimated scf accuracy    <       0.00286073 Ry

     iteration #  4     ecut=    64.00 Ry     beta=0.70
     Davidson diagonalization with overlap
     ethr =  1.02E-05,  avg # of iterations =  3.0

     total cpu time spent up to now is       18.3 secs

     total energy              =    -318.49845054 Ry
     Harris-Foulkes estimate   =    -318.49856797 Ry
     estimated scf accuracy    <       0.00017438 Ry

     iteration #  5     ecut=    64.00 Ry     beta=0.70
     Davidson diagonalization with overlap
     ethr =  6.23E-07,  avg # of iterations =  3.0

     total cpu time spent up to now is       22.5 secs

     total energy              =    -318.49850420 Ry
     Harris-Foulkes estimate   =    -318.49850499 Ry
     estimated scf accuracy    <       0.00000163 Ry

     iteration #  6     ecut=    64.00 Ry     beta=0.70
     Davidson diagonalization with overlap
     ethr =  5.83E-09,  avg # of iterations =  3.9

     total cpu time spent up to now is       26.9 secs

     total energy              =    -318.49850500 Ry
     Harris-Foulkes estimate   =    -318.49850504 Ry
     estimated scf accuracy    <       0.00000006 Ry

     iteration #  7     ecut=    64.00 Ry     beta=0.70
     Davidson diagonalization with overlap
     ethr =  2.27E-10,  avg # of iterations =  3.2

     total cpu time spent up to now is       31.2 secs

     End of self-consistent calculation

          k =-0.0625 0.0625 0.0625 (  4288 PWs)   bands (ev):

   -14.6231 -14.6231 -14.6196 -14.5676 -14.5676 -14.3271 -14.3271 -14.3176
   -14.3058 -14.3058  -3.1478   5.4067   6.9677   6.9677

          k =-0.1875 0.1875-0.0625 (  4305 PWs)   bands (ev):

   -14.6349 -14.6300 -14.6162 -14.5567 -14.5498 -14.3501 -14.3409 -14.3154
   -14.3003 -14.2878  -2.9625   4.2354   6.2875   6.8302

          k =-0.3125 0.3125-0.1875 (  4292 PWs)   bands (ev):

   -14.6461 -14.6431 -14.6051 -14.5389 -14.5292 -14.3685 -14.3568 -14.3308
   -14.2831 -14.2757  -2.5222   2.6672   5.7943   6.4077

          k =-0.4375 0.4375-0.3125 (  4293 PWs)   bands (ev):

   -14.6518 -14.6512 -14.5944 -14.5258 -14.5185 -14.3760 -14.3668 -14.3460
   -14.2721 -14.2707  -1.9411   1.3658   5.5485   6.0489

          k = 0.4375-0.4375 0.5625 (  4301 PWs)   bands (ev):

   -14.6549 -14.6510 -14.5917 -14.5196 -14.5188 -14.3749 -14.3726 -14.3491
   -14.2716 -14.2677  -1.6837   0.9220   5.5481   5.8754

          k = 0.3125-0.3125 0.4375 (  4277 PWs)   bands (ev):

   -14.6523 -14.6467 -14.5988 -14.5289 -14.5203 -14.3780 -14.3627 -14.3391
   -14.2775 -14.2701  -2.1331   1.7412   5.7776   5.9250

          k = 0.1875-0.1875 0.3125 (  4306 PWs)   bands (ev):

   -14.6432 -14.6380 -14.6106 -14.5449 -14.5340 -14.3684 -14.3475 -14.3245
   -14.2884 -14.2795  -2.6932   3.1830   6.1944   6.1951

          k = 0.0625-0.0625 0.1875 (  4308 PWs)   bands (ev):

   -14.6290 -14.6262 -14.6202 -14.5633 -14.5552 -14.3482 -14.3275 -14.3142
   -14.3051 -14.2944  -3.0545   4.7490   6.6223   6.6552

          k =-0.0625 0.3125 0.0625 (  4292 PWs)   bands (ev):

   -14.6355 -14.6320 -14.6217 -14.5544 -14.5345 -14.3751 -14.3332 -14.3072
   -14.2996 -14.2877  -2.8686   3.9462   6.1521   6.1674

          k =-0.1875 0.4375-0.0625 (  4285 PWs)   bands (ev):

   -14.6484 -14.6434 -14.6090 -14.5384 -14.5109 -14.4002 -14.3499 -14.3179
   -14.2847 -14.2743  -2.5080   2.8395   5.3808   5.9294

          k =-0.3125 0.5625-0.1875 (  4291 PWs)   bands (ev):

   -14.6625 -14.6521 -14.5868 -14.5206 -14.4969 -14.4109 -14.3687 -14.3435
   -14.2714 -14.2595  -1.9464   1.5990   4.8733   5.6294

          k = 0.5625-0.3125 0.6875 (  4301 PWs)   bands (ev):

   -14.6689 -14.6565 -14.5715 -14.5072 -14.4999 -14.4015 -14.3859 -14.3619
   -14.2649 -14.2526  -1.4896   0.8381   4.6119   5.5626

          k = 0.4375-0.1875 0.5625 (  4292 PWs)   bands (ev):

   -14.6653 -14.6565 -14.5746 -14.5185 -14.4986 -14.4007 -14.3731 -14.3627
   -14.2646 -14.2572  -1.7581   1.2644   4.6156   5.7696

          k = 0.3125-0.0625 0.4375 (  4284 PWs)   bands (ev):

   -14.6531 -14.6507 -14.5942 -14.5345 -14.5106 -14.3933 -14.3589 -14.3366
   -14.2756 -14.2683  -2.3423   2.4079   4.9719   6.1572

          k = 0.1875 0.0625 0.3125 (  4304 PWs)   bands (ev):

   -14.6415 -14.6360 -14.6131 -14.5495 -14.5336 -14.3719 -14.3433 -14.3161
   -14.2945 -14.2805  -2.7797   3.5572   5.8264   6.4500

          k =-0.0625 0.5625 0.0625 (  4278 PWs)   bands (ev):

   -14.6503 -14.6476 -14.6132 -14.5233 -14.4805 -14.4375 -14.3620 -14.3073
   -14.2784 -14.2745  -2.2269   2.3021   5.2632   5.3515

          k =-0.1875 0.6875-0.0625 (  4276 PWs)   bands (ev):

   -14.6626 -14.6573 -14.5890 -14.5025 -14.4628 -14.4559 -14.3834 -14.3337
   -14.2649 -14.2592  -1.7130   1.3940   4.6989   5.0900

          k = 0.6875-0.1875 0.8125 (  4281 PWs)   bands (ev):

   -14.6767 -14.6620 -14.5588 -14.4826 -14.4657 -14.4501 -14.4065 -14.3654
   -14.2580 -14.2434  -1.1400   0.5945   4.1222   5.0592

          k = 0.5625-0.0625 0.6875 (  4287 PWs)   bands (ev):

   -14.6792 -14.6631 -14.5504 -14.4877 -14.4695 -14.4331 -14.4139 -14.3750
   -14.2563 -14.2413  -1.2041   0.6760   3.9094   5.3121

          k = 0.4375 0.0625 0.5625 (  4290 PWs)   bands (ev):

   -14.6682 -14.6593 -14.5678 -14.5178 -14.4888 -14.4116 -14.3743 -14.3686
   -14.2608 -14.2547  -1.7864   1.4320   4.2893   5.7460

          k = 0.3125 0.1875 0.4375 (  4288 PWs)   bands (ev):

   -14.6534 -14.6475 -14.5972 -14.5324 -14.5154 -14.3867 -14.3595 -14.3367
   -14.2778 -14.2687  -2.2708   2.1279   5.3380   6.0637

          k =-0.0625 0.8125 0.0625 (  4279 PWs)   bands (ev):

   -14.6623 -14.6599 -14.5825 -14.5024 -14.4792 -14.4200 -14.4051 -14.3394
   -14.2604 -14.2579  -1.2490   0.7396   4.7315   4.8570

          k = 0.8125-0.0625 0.9375 (  4283 PWs)   bands (ev):

   -14.6704 -14.6650 -14.5507 -14.5205 -14.4554 -14.4300 -14.4014 -14.3718
   -14.2540 -14.2487  -0.6298   0.0216   4.3893   4.7085

          k = 0.6875 0.0625 0.8125 (  4284 PWs)   bands (ev):

   -14.6798 -14.6647 -14.5463 -14.4799 -14.4610 -14.4384 -14.4276 -14.3764
   -14.2545 -14.2396  -0.7616   0.1860   3.9465   4.9469

          k = 0.5625 0.1875 0.6875 (  4299 PWs)   bands (ev):

   -14.6756 -14.6606 -14.5587 -14.4957 -14.4844 -14.4191 -14.4012 -14.3698
   -14.2596 -14.2453  -1.3059   0.7184   4.1695   5.3958

          k = 0.4375 0.3125 0.5625 (  4291 PWs)   bands (ev):

   -14.6602 -14.6528 -14.5844 -14.5191 -14.5108 -14.3860 -14.3727 -14.3542
   -14.2695 -14.2622  -1.7156   1.0560   5.1173   5.8100

          k =-0.0625-0.9375 0.0625 (  4276 PWs)   bands (ev):

   -14.6650 -14.6627 -14.5598 -14.5323 -14.4546 -14.4295 -14.3907 -14.3630
   -14.2562 -14.2540  -0.6482   0.0195   4.6229   4.7555

          k =-0.1875-0.8125-0.0625 (  4274 PWs)   bands (ev):

   -14.6677 -14.6623 -14.5717 -14.4928 -14.4797 -14.4280 -14.4058 -14.3508
   -14.2579 -14.2524  -1.2018   0.6909   4.4937   4.8365

          k =-0.3125-0.6875-0.1875 (  4287 PWs)   bands (ev):

   -14.6707 -14.6574 -14.5738 -14.5033 -14.4768 -14.4357 -14.3856 -14.3529
   -14.2642 -14.2504  -1.5614   1.0859   4.4479   5.2862

          k =-0.0625-0.6875 0.0625 (  4293 PWs)   bands (ev):

   -14.6572 -14.6547 -14.6005 -14.5025 -14.4703 -14.4504 -14.3823 -14.3203
   -14.2681 -14.2653  -1.7775   1.5044   4.9466   5.0576

          k =-0.1875-0.5625-0.0625 (  4275 PWs)   bands (ev):

   -14.6557 -14.6507 -14.6014 -14.5225 -14.4847 -14.4307 -14.3641 -14.3227
   -14.2742 -14.2672  -2.1508   2.1141   4.9982   5.4608

          k =-0.0625-0.4375 0.0625 (  4287 PWs)   bands (ev):

   -14.6427 -14.6396 -14.6201 -14.5409 -14.5090 -14.4053 -14.3453 -14.3027
   -14.2897 -14.2826  -2.5918   3.1208   5.6716   5.7282

          k =-0.1875 0.1875 0.1875 (  4297 PWs)   bands (ev):

   -14.6357 -14.6357 -14.6136 -14.5489 -14.5489 -14.3480 -14.3480 -14.3248
   -14.2887 -14.2887  -2.8723   3.7852   6.5706   6.5706

          k =-0.3125 0.3125 0.0625 (  4300 PWs)   bands (ev):

   -14.6471 -14.6432 -14.6035 -14.5427 -14.5266 -14.3730 -14.3564 -14.3258
   -14.2861 -14.2739  -2.6033   3.0053   5.3877   6.5391

          k =-0.4375 0.4375-0.0625 (  4291 PWs)   bands (ev):

   -14.6602 -14.6557 -14.5798 -14.5290 -14.5031 -14.3940 -14.3673 -14.3556
   -14.2649 -14.2644  -2.0994   1.9245   4.5899   6.1204

          k = 0.4375-0.4375 0.8125 (  4287 PWs)   bands (ev):

   -14.6708 -14.6582 -14.5658 -14.5095 -14.4945 -14.3987 -14.3917 -14.3684
   -14.2620 -14.2512  -1.5348   0.9612   4.3635   5.6991

          k = 0.3125-0.3125 0.6875 (  4294 PWs)   bands (ev):

   -14.6706 -14.6554 -14.5740 -14.5042 -14.4913 -14.4177 -14.3855 -14.3551
   -14.2663 -14.2506  -1.5204   0.9384   4.5424   5.4621

          k = 0.1875-0.1875 0.5625 (  4287 PWs)   bands (ev):

   -14.6600 -14.6488 -14.5970 -14.5216 -14.4904 -14.4228 -14.3658 -14.3289
   -14.2760 -14.2624  -2.0810   1.9117   5.0285   5.4713

          k =-0.1875 0.4375 0.1875 (  4291 PWs)   bands (ev):

   -14.6515 -14.6426 -14.6057 -14.5360 -14.5139 -14.3945 -14.3530 -14.3241
   -14.2840 -14.2711  -2.4279   2.5491   5.5853   5.8112

          k =-0.3125 0.5625 0.0625 (  4284 PWs)   bands (ev):

   -14.6612 -14.6564 -14.5843 -14.5212 -14.4891 -14.4203 -14.3678 -14.3452
   -14.2662 -14.2615  -2.0017   1.8014   4.6288   5.6323

          k = 0.5625-0.3125 0.9375 (  4283 PWs)   bands (ev):

   -14.6743 -14.6638 -14.5556 -14.5008 -14.4698 -14.4366 -14.3936 -14.3725
   -14.2561 -14.2468  -1.4142   0.9447   4.0963   5.2432

          k = 0.4375-0.1875 0.8125 (  4293 PWs)   bands (ev):

   -14.6779 -14.6648 -14.5491 -14.4871 -14.4660 -14.4434 -14.4077 -14.3758
   -14.2551 -14.2423  -1.1122   0.5514   4.0584   5.0289

          k = 0.3125-0.0625 0.6875 (  4277 PWs)   bands (ev):

   -14.6683 -14.6619 -14.5714 -14.5029 -14.4653 -14.4486 -14.3857 -14.3544
   -14.2591 -14.2532  -1.5888   1.1957   4.3798   5.1490

          k =-0.1875 0.6875 0.1875 (  4284 PWs)   bands (ev):

   -14.6676 -14.6552 -14.5842 -14.5026 -14.4667 -14.4502 -14.3841 -14.3398
   -14.2671 -14.2537  -1.6598   1.2767   4.5811   5.2015

          k = 0.6875-0.1875 1.0625 (  4282 PWs)   bands (ev):

   -14.6732 -14.6668 -14.5547 -14.4813 -14.4774 -14.4393 -14.4077 -14.3685
   -14.2531 -14.2468  -1.1142   0.5964   4.2331   4.7775

          k = 0.5625-0.0625 0.9375 (  4280 PWs)   bands (ev):

   -14.6785 -14.6731 -14.5223 -14.4879 -14.4604 -14.4357 -14.4262 -14.3970
   -14.2461 -14.2408  -0.5824   0.0241   4.0604   4.4575

          k = 0.4375 0.0625 0.8125 (  4285 PWs)   bands (ev):

   -14.6777 -14.6690 -14.5401 -14.4814 -14.4636 -14.4476 -14.4138 -14.3828
   -14.2506 -14.2422  -0.9992   0.4670   4.0244   4.7797

          k =-0.1875-1.0625 0.1875 (  4279 PWs)   bands (ev):

   -14.6762 -14.6629 -14.5519 -14.5025 -14.4571 -14.4291 -14.4181 -14.3710
   -14.2561 -14.2431  -0.6759   0.0800   4.1133   4.9208

          k =-0.3125-0.9375 0.0625 (  4280 PWs)   bands (ev):

   -14.6756 -14.6697 -14.5357 -14.5027 -14.4574 -14.4316 -14.4164 -14.3858
   -14.2495 -14.2436  -0.6025   0.0235   4.1782   4.5654

          k =-0.1875-0.8125 0.1875 (  4281 PWs)   bands (ev):

   -14.6732 -14.6601 -14.5679 -14.4810 -14.4804 -14.4383 -14.4060 -14.3553
   -14.2600 -14.2469  -1.1770   0.6522   4.2712   5.0155

          k =-0.3125 0.3125 0.3125 (  4278 PWs)   bands (ev):

   -14.6455 -14.6455 -14.6047 -14.5314 -14.5314 -14.3633 -14.3633 -14.3354
   -14.2779 -14.2779  -2.3632   2.2058   6.1851   6.1851

          k =-0.4375 0.4375 0.1875 (  4288 PWs)   bands (ev):

   -14.6568 -14.6539 -14.5860 -14.5279 -14.5101 -14.3861 -14.3657 -14.3524
   -14.2680 -14.2669  -2.0436   1.6848   4.9714   6.0980

          k = 0.4375-0.4375 1.0625 (  4290 PWs)   bands (ev):

   -14.6749 -14.6606 -14.5578 -14.5058 -14.4823 -14.4113 -14.4000 -14.3722
   -14.2590 -14.2468  -1.5154   1.0497   4.0389   5.6555

          k = 0.3125-0.3125 0.9375 (  4288 PWs)   bands (ev):

   -14.6812 -14.6626 -14.5507 -14.4662 -14.4650 -14.4511 -14.4235 -14.3732
   -14.2566 -14.2387  -0.9780   0.4162   3.8538   5.2338

          k =-0.3125 0.5625 0.3125 (  4289 PWs)   bands (ev):

   -14.6616 -14.6504 -14.5878 -14.5197 -14.5066 -14.3972 -14.3704 -14.3455
   -14.2730 -14.2604  -1.8448   1.3145   5.1300   5.6733

          k = 0.5625-0.3125 1.1875 (  4289 PWs)   bands (ev):

   -14.6728 -14.6604 -14.5625 -14.5035 -14.4833 -14.4219 -14.3899 -14.3675
   -14.2602 -14.2484  -1.4349   0.8824   4.3029   5.3549

          k = 0.4375-0.1875 1.0625 (  4280 PWs)   bands (ev):

   -14.6803 -14.6678 -14.5385 -14.4734 -14.4607 -14.4496 -14.4238 -14.3835
   -14.2516 -14.2394  -0.8750   0.3223   3.9187   4.8580

          k =-0.3125-1.1875 0.3125 (  4290 PWs)   bands (ev):

   -14.6775 -14.6599 -14.5602 -14.4847 -14.4766 -14.4368 -14.4049 -14.3657
   -14.2601 -14.2429  -1.2024   0.6237   4.0965   5.3117

          k =-0.4375 0.4375 0.4375 (  4287 PWs)   bands (ev):

   -14.6498 -14.6498 -14.5981 -14.5227 -14.5227 -14.3700 -14.3700 -14.3432
   -14.2730 -14.2730  -1.8114   1.0897   5.9719   5.9719

          k = 0.4375-0.4375 1.3125 (  4303 PWs)   bands (ev):

   -14.6634 -14.6544 -14.5788 -14.5143 -14.5091 -14.3835 -14.3819 -14.3599
   -14.2670 -14.2590  -1.5875   0.8882   4.9085   5.7777

     highest occupied level (ev):     6.9677

!    total energy              =    -318.49850503 Ry
     Harris-Foulkes estimate   =    -318.49850503 Ry
     estimated scf accuracy    <          2.7E-09 Ry

     The total energy is the sum of the following terms:

     one-electron contribution =    -162.00372582 Ry
     hartree contribution      =      97.52401386 Ry
     xc contribution           =     -85.96269810 Ry
     ewald contribution        =    -168.05609497 Ry

     convergence has been achieved in   7 iterations


     Computing stress (Cartesian axis) and pressure

          total   stress  (Ry/bohr**3)                   (kbar)     P=   -0.64
  -0.00000434   0.00000000  -0.00000000         -0.64      0.00     -0.00
   0.00000000  -0.00000434   0.00000000          0.00     -0.64      0.00
  -0.00000000   0.00000000  -0.00000434         -0.00      0.00     -0.64


     Writing output data file sn.alpha.64.save

     init_run     :      1.78s CPU      1.89s WALL (       1 calls)
     electrons    :     28.35s CPU     29.30s WALL (       1 calls)
     stress       :      1.46s CPU      1.50s WALL (       1 calls)

     Called by init_run:
     wfcinit      :      1.28s CPU      1.36s WALL (       1 calls)
     potinit      :      0.07s CPU      0.08s WALL (       1 calls)

     Called by electrons:
     c_bands      :     22.61s CPU     23.20s WALL (       7 calls)
     sum_band     :      4.59s CPU      4.81s WALL (       7 calls)
     v_of_rho     :      0.45s CPU      0.47s WALL (       8 calls)
     newd         :      0.75s CPU      0.86s WALL (       8 calls)
     mix_rho      :      0.04s CPU      0.04s WALL (       7 calls)

     Called by c_bands:
     init_us_2    :      0.60s CPU      0.61s WALL (     960 calls)
     cegterg      :     21.54s CPU     22.11s WALL (     420 calls)

     Called by sum_band:
     sum_band:bec :      0.00s CPU      0.01s WALL (     420 calls)
     addusdens    :      0.86s CPU      1.00s WALL (       7 calls)

     Called by *egterg:
     h_psi        :     19.36s CPU     19.96s WALL (    1731 calls)
     s_psi        :      0.37s CPU      0.37s WALL (    1731 calls)
     g_psi        :      0.11s CPU      0.11s WALL (    1251 calls)
     cdiaghg      :      0.74s CPU      0.74s WALL (    1671 calls)

     Called by h_psi:
     h_psi:pot    :     19.13s CPU     19.73s WALL (    1731 calls)
     h_psi:calbec :      0.71s CPU      0.72s WALL (    1731 calls)
     vloc_psi     :     17.91s CPU     18.46s WALL (    1731 calls)
     add_vuspsi   :      0.51s CPU      0.55s WALL (    1731 calls)

     General routines
     calbec       :      0.90s CPU      0.92s WALL (    2211 calls)
     fft          :      0.26s CPU      0.27s WALL (     138 calls)
     ffts         :      0.01s CPU      0.01s WALL (      15 calls)
     fftw         :     16.45s CPU     16.95s WALL (   45666 calls)
     interpolate  :      0.04s CPU      0.05s WALL (      15 calls)
     davcio       :      0.00s CPU      0.00s WALL (      60 calls)

     Parallel routines
     fft_scatter  :      2.36s CPU      2.45s WALL (   45819 calls)

     PWSCF        :    31.75s CPU        34.15s WALL


   This run was terminated on:  13: 1:34  12Nov2017            

=------------------------------------------------------------------------------=
   JOB DONE.
=------------------------------------------------------------------------------=
