
     Program PWSCF v.6.1 (svn rev. 13369) starts on 11Nov2017 at 16:10:31 

     This program is part of the open-source Quantum ESPRESSO suite
     for quantum simulation of materials; please cite
         "P. Giannozzi et al., J. Phys.:Condens. Matter 21 395502 (2009);
          URL http://www.quantum-espresso.org", 
     in publications or presentations arising from this work. More details at
     http://www.quantum-espresso.org/quote

     Parallel version (MPI), running on     4 processors
     R & G space division:  proc/nbgrp/npool/nimage =       4
     Waiting for input...
     Reading input from standard input
     Message from routine read_cards :
     DEPRECATED: no units specified in ATOMIC_POSITIONS card
     Message from routine read_cards :
     ATOMIC_POSITIONS: units set to alat

     Current dimensions of program PWSCF are:
     Max number of different atomic species (ntypx) = 10
     Max number of k-points (npk) =  40000
     Max angular momentum in pseudopotentials (lmaxx) =  3

     Subspace diagonalization in iterative solution of the eigenvalue problem:
     a serial algorithm will be used


     Parallelization info
     --------------------
     sticks:   dense  smooth     PW     G-vecs:    dense   smooth      PW
     Min         530     267     78                16218     5761     958
     Max         533     268     79                16219     5764     963
     Sum        2125    1069    313                64875    23049    3839



     bravais-lattice index     =            2
     lattice parameter (alat)  =      12.4500  a.u.
     unit-cell volume          =     482.4453 (a.u.)^3
     number of atoms/cell      =            2
     number of atomic types    =            1
     number of electrons       =        28.00
     number of Kohn-Sham states=           14
     kinetic-energy cutoff     =      50.0000  Ry
     charge density cutoff     =     400.0000  Ry
     convergence threshold     =      1.0E-08
     mixing beta               =       0.7000
     number of iterations used =            8  plain     mixing
     Exchange-correlation      =  SLA  PW   PBX  PBC ( 1  4  3  4 0 0)

     celldm(1)=  12.450000  celldm(2)=   0.000000  celldm(3)=   0.000000
     celldm(4)=   0.000000  celldm(5)=   0.000000  celldm(6)=   0.000000

     crystal axes: (cart. coord. in units of alat)
               a(1) = (  -0.500000   0.000000   0.500000 )  
               a(2) = (   0.000000   0.500000   0.500000 )  
               a(3) = (  -0.500000   0.500000   0.000000 )  

     reciprocal axes: (cart. coord. in units 2 pi/alat)
               b(1) = ( -1.000000 -1.000000  1.000000 )  
               b(2) = (  1.000000  1.000000  1.000000 )  
               b(3) = ( -1.000000  1.000000 -1.000000 )  


     PseudoPot. # 1 for Sn read from file:
     /home/s1333534/quantum_espresso/qe-6.1/pseudo/sn_pbe_v1.4.uspp.F.UPF
     MD5 check sum: 469debedee59599fedebd795477fea03
     Pseudo is Ultrasoft + core correction, Zval = 14.0
     Generated by new atomic code, or converted to UPF format
     Using radial grid of  891 points,  6 beta functions with: 
                l(1) =   0
                l(2) =   0
                l(3) =   1
                l(4) =   1
                l(5) =   2
                l(6) =   2
     Q(r) pseudized with  8 coefficients,  rinner =    1.350   1.350   1.350
                                                       1.350   1.350

     atomic species   valence    mass     pseudopotential
        Sn            14.00   118.71000     Sn( 1.00)

     48 Sym. Ops., with inversion, found (24 have fractional translation)



   Cartesian axes

     site n.     atom                  positions (alat units)
         1           Sn  tau(   1) = (   0.0000000   0.0000000   0.0000000  )
         2           Sn  tau(   2) = (   0.2500000   0.2500000   0.2500000  )

     number of k points=    60
                       cart. coord. in units 2pi/alat
        k(    1) = (  -0.0625000   0.0625000   0.0625000), wk =   0.0078125
        k(    2) = (  -0.1875000   0.1875000  -0.0625000), wk =   0.0234375
        k(    3) = (  -0.3125000   0.3125000  -0.1875000), wk =   0.0234375
        k(    4) = (  -0.4375000   0.4375000  -0.3125000), wk =   0.0234375
        k(    5) = (   0.4375000  -0.4375000   0.5625000), wk =   0.0234375
        k(    6) = (   0.3125000  -0.3125000   0.4375000), wk =   0.0234375
        k(    7) = (   0.1875000  -0.1875000   0.3125000), wk =   0.0234375
        k(    8) = (   0.0625000  -0.0625000   0.1875000), wk =   0.0234375
        k(    9) = (  -0.0625000   0.3125000   0.0625000), wk =   0.0234375
        k(   10) = (  -0.1875000   0.4375000  -0.0625000), wk =   0.0468750
        k(   11) = (  -0.3125000   0.5625000  -0.1875000), wk =   0.0468750
        k(   12) = (   0.5625000  -0.3125000   0.6875000), wk =   0.0468750
        k(   13) = (   0.4375000  -0.1875000   0.5625000), wk =   0.0468750
        k(   14) = (   0.3125000  -0.0625000   0.4375000), wk =   0.0468750
        k(   15) = (   0.1875000   0.0625000   0.3125000), wk =   0.0468750
        k(   16) = (  -0.0625000   0.5625000   0.0625000), wk =   0.0234375
        k(   17) = (  -0.1875000   0.6875000  -0.0625000), wk =   0.0468750
        k(   18) = (   0.6875000  -0.1875000   0.8125000), wk =   0.0468750
        k(   19) = (   0.5625000  -0.0625000   0.6875000), wk =   0.0468750
        k(   20) = (   0.4375000   0.0625000   0.5625000), wk =   0.0468750
        k(   21) = (   0.3125000   0.1875000   0.4375000), wk =   0.0468750
        k(   22) = (  -0.0625000   0.8125000   0.0625000), wk =   0.0234375
        k(   23) = (   0.8125000  -0.0625000   0.9375000), wk =   0.0468750
        k(   24) = (   0.6875000   0.0625000   0.8125000), wk =   0.0468750
        k(   25) = (   0.5625000   0.1875000   0.6875000), wk =   0.0468750
        k(   26) = (   0.4375000   0.3125000   0.5625000), wk =   0.0468750
        k(   27) = (  -0.0625000  -0.9375000   0.0625000), wk =   0.0234375
        k(   28) = (  -0.1875000  -0.8125000  -0.0625000), wk =   0.0468750
        k(   29) = (  -0.3125000  -0.6875000  -0.1875000), wk =   0.0468750
        k(   30) = (  -0.0625000  -0.6875000   0.0625000), wk =   0.0234375
        k(   31) = (  -0.1875000  -0.5625000  -0.0625000), wk =   0.0468750
        k(   32) = (  -0.0625000  -0.4375000   0.0625000), wk =   0.0234375
        k(   33) = (  -0.1875000   0.1875000   0.1875000), wk =   0.0078125
        k(   34) = (  -0.3125000   0.3125000   0.0625000), wk =   0.0234375
        k(   35) = (  -0.4375000   0.4375000  -0.0625000), wk =   0.0234375
        k(   36) = (   0.4375000  -0.4375000   0.8125000), wk =   0.0234375
        k(   37) = (   0.3125000  -0.3125000   0.6875000), wk =   0.0234375
        k(   38) = (   0.1875000  -0.1875000   0.5625000), wk =   0.0234375
        k(   39) = (  -0.1875000   0.4375000   0.1875000), wk =   0.0234375
        k(   40) = (  -0.3125000   0.5625000   0.0625000), wk =   0.0468750
        k(   41) = (   0.5625000  -0.3125000   0.9375000), wk =   0.0468750
        k(   42) = (   0.4375000  -0.1875000   0.8125000), wk =   0.0468750
        k(   43) = (   0.3125000  -0.0625000   0.6875000), wk =   0.0468750
        k(   44) = (  -0.1875000   0.6875000   0.1875000), wk =   0.0234375
        k(   45) = (   0.6875000  -0.1875000   1.0625000), wk =   0.0468750
        k(   46) = (   0.5625000  -0.0625000   0.9375000), wk =   0.0468750
        k(   47) = (   0.4375000   0.0625000   0.8125000), wk =   0.0468750
        k(   48) = (  -0.1875000  -1.0625000   0.1875000), wk =   0.0234375
        k(   49) = (  -0.3125000  -0.9375000   0.0625000), wk =   0.0468750
        k(   50) = (  -0.1875000  -0.8125000   0.1875000), wk =   0.0234375
        k(   51) = (  -0.3125000   0.3125000   0.3125000), wk =   0.0078125
        k(   52) = (  -0.4375000   0.4375000   0.1875000), wk =   0.0234375
        k(   53) = (   0.4375000  -0.4375000   1.0625000), wk =   0.0234375
        k(   54) = (   0.3125000  -0.3125000   0.9375000), wk =   0.0234375
        k(   55) = (  -0.3125000   0.5625000   0.3125000), wk =   0.0234375
        k(   56) = (   0.5625000  -0.3125000   1.1875000), wk =   0.0468750
        k(   57) = (   0.4375000  -0.1875000   1.0625000), wk =   0.0468750
        k(   58) = (  -0.3125000  -1.1875000   0.3125000), wk =   0.0234375
        k(   59) = (  -0.4375000   0.4375000   0.4375000), wk =   0.0078125
        k(   60) = (   0.4375000  -0.4375000   1.3125000), wk =   0.0234375

     Dense  grid:    64875 G-vectors     FFT dimensions: (  60,  60,  60)

     Smooth grid:    23049 G-vectors     FFT dimensions: (  40,  40,  40)

     Estimated max dynamical RAM per process >      21.24MB

     Estimated total allocated dynamical RAM >      84.94MB

     Initial potential from superposition of free atoms

     starting charge   25.99991, renormalised to   28.00000
     Starting wfc are   18 randomized atomic wfcs

     total cpu time spent up to now is        1.3 secs

     per-process dynamical memory:    25.4 Mb

     Self-consistent Calculation

     iteration #  1     ecut=    50.00 Ry     beta=0.70
     Davidson diagonalization with overlap
     ethr =  1.00E-02,  avg # of iterations =  2.7

     total cpu time spent up to now is        3.8 secs

     total energy              =    -317.48811744 Ry
     Harris-Foulkes estimate   =    -319.54303777 Ry
     estimated scf accuracy    <       2.50395801 Ry

     iteration #  2     ecut=    50.00 Ry     beta=0.70
     Davidson diagonalization with overlap
     ethr =  8.94E-03,  avg # of iterations =  3.0

     total cpu time spent up to now is        6.4 secs

     total energy              =    -318.39354873 Ry
     Harris-Foulkes estimate   =    -318.71109364 Ry
     estimated scf accuracy    <       0.47327756 Ry

     iteration #  3     ecut=    50.00 Ry     beta=0.70
     Davidson diagonalization with overlap
     ethr =  1.69E-03,  avg # of iterations =  2.0

     total cpu time spent up to now is        8.8 secs

     total energy              =    -318.48838682 Ry
     Harris-Foulkes estimate   =    -318.48996089 Ry
     estimated scf accuracy    <       0.00288411 Ry

     iteration #  4     ecut=    50.00 Ry     beta=0.70
     Davidson diagonalization with overlap
     ethr =  1.03E-05,  avg # of iterations =  3.0

     total cpu time spent up to now is       11.3 secs

     total energy              =    -318.48927803 Ry
     Harris-Foulkes estimate   =    -318.48939626 Ry
     estimated scf accuracy    <       0.00017543 Ry

     iteration #  5     ecut=    50.00 Ry     beta=0.70
     Davidson diagonalization with overlap
     ethr =  6.27E-07,  avg # of iterations =  3.0

     total cpu time spent up to now is       13.8 secs

     total energy              =    -318.48933149 Ry
     Harris-Foulkes estimate   =    -318.48933218 Ry
     estimated scf accuracy    <       0.00000145 Ry

     iteration #  6     ecut=    50.00 Ry     beta=0.70
     Davidson diagonalization with overlap
     ethr =  5.19E-09,  avg # of iterations =  4.0

     total cpu time spent up to now is       16.6 secs

     total energy              =    -318.48933225 Ry
     Harris-Foulkes estimate   =    -318.48933231 Ry
     estimated scf accuracy    <       0.00000008 Ry

     iteration #  7     ecut=    50.00 Ry     beta=0.70
     Davidson diagonalization with overlap
     ethr =  2.91E-10,  avg # of iterations =  3.1

     total cpu time spent up to now is       19.2 secs

     End of self-consistent calculation

          k =-0.0625 0.0625 0.0625 (  2846 PWs)   bands (ev):

   -14.3313 -14.3313 -14.3274 -14.2726 -14.2726 -14.0126 -14.0126 -14.0039
   -13.9895 -13.9895  -2.9897   5.8575   7.2933   7.2933

          k =-0.1875 0.1875-0.0625 (  2851 PWs)   bands (ev):

   -14.3442 -14.3391 -14.3246 -14.2605 -14.2529 -14.0375 -14.0276 -14.0007
   -13.9843 -13.9703  -2.7989   4.6135   6.5853   7.1516

          k =-0.3125 0.3125-0.1875 (  2879 PWs)   bands (ev):

   -14.3568 -14.3536 -14.3127 -14.2416 -14.2313 -14.0576 -14.0448 -14.0177
   -13.9664 -13.9579  -2.3446   2.9778   6.0825   6.7135

          k =-0.4375 0.4375-0.3125 (  2885 PWs)   bands (ev):

   -14.3628 -14.3624 -14.3013 -14.2280 -14.2200 -14.0650 -14.0551 -14.0343
   -13.9549 -13.9527  -1.7425   1.6266   5.8341   6.3422

          k = 0.4375-0.4375 0.5625 (  2887 PWs)   bands (ev):

   -14.3662 -14.3621 -14.2988 -14.2211 -14.2206 -14.0637 -14.0611 -14.0376
   -13.9545 -13.9498  -1.4738   1.1645   5.8366   6.1623

          k = 0.3125-0.3125 0.4375 (  2887 PWs)   bands (ev):

   -14.3635 -14.3574 -14.3064 -14.2311 -14.2219 -14.0677 -14.0507 -14.0268
   -13.9603 -13.9521  -1.9420   2.0165   6.0735   6.2124

          k = 0.1875-0.1875 0.3125 (  2870 PWs)   bands (ev):

   -14.3533 -14.3480 -14.3186 -14.2479 -14.2363 -14.0577 -14.0344 -14.0110
   -13.9720 -13.9618  -2.5212   3.5143   6.4903   6.5009

          k = 0.0625-0.0625 0.1875 (  2841 PWs)   bands (ev):

   -14.3379 -14.3346 -14.3285 -14.2678 -14.2586 -14.0358 -14.0122 -13.9999
   -13.9892 -13.9772  -2.8936   5.1568   6.9322   6.9708

          k =-0.0625 0.3125 0.0625 (  2863 PWs)   bands (ev):

   -14.3454 -14.3416 -14.3309 -14.2580 -14.2367 -14.0653 -14.0179 -13.9922
   -13.9841 -13.9700  -2.7022   4.3233   6.4473   6.4601

          k =-0.1875 0.4375-0.0625 (  2871 PWs)   bands (ev):

   -14.3593 -14.3538 -14.3173 -14.2409 -14.2111 -14.0924 -14.0365 -14.0032
   -13.9684 -13.9562  -2.3305   3.1741   5.6473   6.2187

          k =-0.3125 0.5625-0.1875 (  2880 PWs)   bands (ev):

   -14.3744 -14.3632 -14.2936 -14.2220 -14.1964 -14.1037 -14.0569 -14.0308
   -13.9539 -13.9406  -1.7500   1.8840   5.1322   5.9066

          k = 0.5625-0.3125 0.6875 (  2888 PWs)   bands (ev):

   -14.3816 -14.3679 -14.2771 -14.2078 -14.1999 -14.0934 -14.0757 -14.0507
   -13.9467 -13.9333  -1.2744   1.0913   4.8661   5.8368

          k = 0.4375-0.1875 0.5625 (  2879 PWs)   bands (ev):

   -14.3774 -14.3680 -14.2801 -14.2199 -14.1984 -14.0924 -14.0616 -14.0520
   -13.9462 -13.9382  -1.5542   1.5357   4.8657   6.0520

          k = 0.3125-0.0625 0.4375 (  2873 PWs)   bands (ev):

   -14.3642 -14.3617 -14.3011 -14.2368 -14.2110 -14.0846 -14.0466 -14.0234
   -13.9585 -13.9498  -2.1593   2.7240   5.2247   6.4549

          k = 0.1875 0.0625 0.3125 (  2868 PWs)   bands (ev):

   -14.3517 -14.3458 -14.3216 -14.2528 -14.2357 -14.0615 -14.0298 -14.0012
   -13.9788 -13.9627  -2.6105   3.9115   6.1078   6.7595

          k =-0.0625 0.5625 0.0625 (  2872 PWs)   bands (ev):

   -14.3614 -14.3582 -14.3223 -14.2246 -14.1782 -14.1328 -14.0492 -13.9908
   -13.9617 -13.9571  -2.0411   2.6279   5.5258   5.6171

          k =-0.1875 0.6875-0.0625 (  2877 PWs)   bands (ev):

   -14.3746 -14.3688 -14.2962 -14.2022 -14.1600 -14.1517 -14.0729 -14.0195
   -13.9469 -13.9403  -1.5110   1.6901   4.9418   5.3467

          k = 0.6875-0.1875 0.8125 (  2888 PWs)   bands (ev):

   -14.3900 -14.3741 -14.2638 -14.1809 -14.1630 -14.1458 -14.0981 -14.0540
   -13.9393 -13.9232  -0.9169   0.8615   4.3457   5.3149

          k = 0.5625-0.0625 0.6875 (  2889 PWs)   bands (ev):

   -14.3927 -14.3754 -14.2544 -14.1865 -14.1667 -14.1280 -14.1066 -14.0642
   -13.9372 -13.9210  -0.9821   0.9445   4.1240   5.5772

          k = 0.4375 0.0625 0.5625 (  2882 PWs)   bands (ev):

   -14.3806 -14.3712 -14.2730 -14.2190 -14.1878 -14.1043 -14.0633 -14.0579
   -13.9419 -13.9356  -1.5847   1.7202   4.5189   6.0272

          k = 0.3125 0.1875 0.4375 (  2880 PWs)   bands (ev):

   -14.3645 -14.3582 -14.3047 -14.2347 -14.2164 -14.0775 -14.0472 -14.0239
   -13.9607 -13.9504  -2.0850   2.4237   5.6128   6.3584

          k =-0.0625 0.8125 0.0625 (  2885 PWs)   bands (ev):

   -14.3745 -14.3717 -14.2896 -14.2033 -14.1769 -14.1125 -14.0966 -14.0252
   -13.9420 -13.9396  -1.0333   1.0173   4.9762   5.1069

          k = 0.8125-0.0625 0.9375 (  2887 PWs)   bands (ev):

   -14.3832 -14.3774 -14.2553 -14.2226 -14.1512 -14.1236 -14.0926 -14.0606
   -13.9351 -13.9292  -0.3938   0.2771   4.6203   4.9524

          k = 0.6875 0.0625 0.8125 (  2885 PWs)   bands (ev):

   -14.3933 -14.3770 -14.2503 -14.1787 -14.1574 -14.1331 -14.1210 -14.0655
   -13.9354 -13.9190  -0.5259   0.4436   4.1604   5.1990

          k = 0.5625 0.1875 0.6875 (  2884 PWs)   bands (ev):

   -14.3888 -14.3724 -14.2633 -14.1952 -14.1829 -14.1125 -14.0924 -14.0589
   -13.9408 -13.9252  -1.0857   0.9787   4.4004   5.6638

          k = 0.4375 0.3125 0.5625 (  2884 PWs)   bands (ev):

   -14.3720 -14.3639 -14.2908 -14.2207 -14.2118 -14.0762 -14.0612 -14.0428
   -13.9519 -13.9437  -1.5084   1.3092   5.3916   6.0942

          k =-0.0625-0.9375 0.0625 (  2888 PWs)   bands (ev):

   -14.3773 -14.3748 -14.2652 -14.2355 -14.1503 -14.1231 -14.0808 -14.0508
   -13.9378 -13.9351  -0.4139   0.2747   4.8639   5.0022

          k =-0.1875-0.8125-0.0625 (  2886 PWs)   bands (ev):

   -14.3803 -14.3744 -14.2778 -14.1927 -14.1775 -14.1214 -14.0973 -14.0380
   -13.9392 -13.9333  -0.9838   0.9668   4.7289   5.0845

          k =-0.3125-0.6875-0.1875 (  2879 PWs)   bands (ev):

   -14.3833 -14.3690 -14.2795 -14.2032 -14.1746 -14.1306 -14.0752 -14.0406
   -13.9461 -13.9307  -1.3522   1.3621   4.6881   5.5499

          k =-0.0625-0.6875 0.0625 (  2875 PWs)   bands (ev):

   -14.3686 -14.3660 -14.3088 -14.2021 -14.1682 -14.1454 -14.0716 -14.0044
   -13.9506 -13.9474  -1.5781   1.8058   5.1984   5.3138

          k =-0.1875-0.5625-0.0625 (  2880 PWs)   bands (ev):

   -14.3673 -14.3618 -14.3095 -14.2238 -14.1829 -14.1255 -14.0519 -14.0081
   -13.9571 -13.9490  -1.9623   2.4297   5.2518   5.7314

          k =-0.0625-0.4375 0.0625 (  2866 PWs)   bands (ev):

   -14.3530 -14.3499 -14.3294 -14.2435 -14.2089 -14.0980 -14.0309 -13.9867
   -13.9737 -13.9651  -2.4171   3.4717   5.9487   6.0060

          k =-0.1875 0.1875 0.1875 (  2869 PWs)   bands (ev):

   -14.3453 -14.3453 -14.3220 -14.2521 -14.2521 -14.0353 -14.0353 -14.0119
   -13.9718 -13.9718  -2.7059   4.1375   6.8805   6.8805

          k =-0.3125 0.3125 0.0625 (  2863 PWs)   bands (ev):

   -14.3575 -14.3533 -14.3110 -14.2455 -14.2281 -14.0624 -14.0446 -14.0114
   -13.9697 -13.9556  -2.4285   3.3383   5.6541   6.8501

          k =-0.4375 0.4375-0.0625 (  2886 PWs)   bands (ev):

   -14.3719 -14.3672 -14.2859 -14.2311 -14.2033 -14.0851 -14.0565 -14.0435
   -13.9471 -13.9457  -1.9082   2.2252   4.8301   6.4158

          k = 0.4375-0.4375 0.8125 (  2880 PWs)   bands (ev):

   -14.3835 -14.3700 -14.2707 -14.2102 -14.1940 -14.0896 -14.0827 -14.0575
   -13.9433 -13.9316  -1.3225   1.2240   4.6039   5.9790

          k = 0.3125-0.3125 0.6875 (  2889 PWs)   bands (ev):

   -14.3835 -14.3667 -14.2799 -14.2044 -14.1906 -14.1112 -14.0753 -14.0433
   -13.9484 -13.9310  -1.3079   1.2007   4.7913   5.7331

          k = 0.1875-0.1875 0.5625 (  2886 PWs)   bands (ev):

   -14.3718 -14.3598 -14.3048 -14.2230 -14.1893 -14.1169 -14.0538 -14.0150
   -13.9590 -13.9437  -1.8898   2.2137   5.2900   5.7415

          k =-0.1875 0.4375 0.1875 (  2876 PWs)   bands (ev):

   -14.3624 -14.3531 -14.3136 -14.2384 -14.2146 -14.0861 -14.0401 -14.0102
   -13.9675 -13.9529  -2.2476   2.8647   5.8703   6.0928

          k =-0.3125 0.5625 0.0625 (  2884 PWs)   bands (ev):

   -14.3731 -14.3679 -14.2908 -14.2226 -14.1879 -14.1142 -14.0557 -14.0329
   -13.9483 -13.9429  -1.8079   2.1029   4.8700   5.9095

          k = 0.5625-0.3125 0.9375 (  2888 PWs)   bands (ev):

   -14.3874 -14.3761 -14.2600 -14.2006 -14.1671 -14.1317 -14.0843 -14.0621
   -13.9369 -13.9270  -1.2002   1.2221   4.3183   5.5047

          k = 0.4375-0.1875 0.8125 (  2885 PWs)   bands (ev):

   -14.3913 -14.3770 -14.2531 -14.1858 -14.1631 -14.1390 -14.0992 -14.0654
   -13.9359 -13.9220  -0.8867   0.8143   4.2814   5.2819

          k = 0.3125-0.0625 0.6875 (  2878 PWs)   bands (ev):

   -14.3808 -14.3740 -14.2771 -14.2026 -14.1620 -14.1445 -14.0754 -14.0425
   -13.9402 -13.9337  -1.3817   1.4830   4.6120   5.4070

          k =-0.1875 0.6875 0.1875 (  2888 PWs)   bands (ev):

   -14.3802 -14.3665 -14.2910 -14.2025 -14.1636 -14.1465 -14.0738 -14.0262
   -13.9497 -13.9345  -1.4552   1.5647   4.8225   5.4629

          k = 0.6875-0.1875 1.0625 (  2889 PWs)   bands (ev):

   -14.3861 -14.3793 -14.2593 -14.1796 -14.1758 -14.1339 -14.0996 -14.0576
   -13.9338 -13.9271  -0.8920   0.8686   4.4588   5.0214

          k = 0.5625-0.0625 0.9375 (  2879 PWs)   bands (ev):

   -14.3918 -14.3860 -14.2241 -14.1871 -14.1565 -14.1299 -14.1196 -14.0882
   -13.9261 -13.9202  -0.3420   0.2804   4.2780   4.6889

          k = 0.4375 0.0625 0.8125 (  2885 PWs)   bands (ev):

   -14.3910 -14.3816 -14.2432 -14.1795 -14.1608 -14.1431 -14.1061 -14.0730
   -13.9309 -13.9220  -0.7717   0.7340   4.2424   5.0231

          k =-0.1875-1.0625 0.1875 (  2882 PWs)   bands (ev):

   -14.3894 -14.3750 -14.2565 -14.2029 -14.1530 -14.1226 -14.1111 -14.0595
   -13.9375 -13.9229  -0.4394   0.3358   4.3333   5.1732

          k =-0.3125-0.9375 0.0625 (  2884 PWs)   bands (ev):

   -14.3888 -14.3824 -14.2389 -14.2032 -14.1533 -14.1254 -14.1091 -14.0759
   -13.9299 -13.9235  -0.3641   0.2796   4.4004   4.8022

          k =-0.1875-0.8125 0.1875 (  2886 PWs)   bands (ev):

   -14.3861 -14.3719 -14.2735 -14.1799 -14.1784 -14.1328 -14.0975 -14.0430
   -13.9419 -13.9270  -0.9570   0.9246   4.4983   5.2709

          k =-0.3125 0.3125 0.3125 (  2887 PWs)   bands (ev):

   -14.3563 -14.3563 -14.3126 -14.2337 -14.2337 -14.0515 -14.0515 -14.0231
   -13.9605 -13.9605  -2.1800   2.4957   6.4822   6.4822

          k =-0.4375 0.4375 0.1875 (  2888 PWs)   bands (ev):

   -14.3683 -14.3653 -14.2926 -14.2301 -14.2107 -14.0764 -14.0542 -14.0409
   -13.9505 -13.9484  -1.8498   1.9659   5.2340   6.3928

          k = 0.4375-0.4375 1.0625 (  2884 PWs)   bands (ev):

   -14.3879 -14.3725 -14.2623 -14.2061 -14.1806 -14.1037 -14.0923 -14.0610
   -13.9400 -13.9270  -1.3041   1.3268   4.2594   5.9338

          k = 0.3125-0.3125 0.9375 (  2882 PWs)   bands (ev):

   -14.3948 -14.3744 -14.2549 -14.1630 -14.1619 -14.1473 -14.1168 -14.0620
   -13.9378 -13.9179  -0.7482   0.6779   4.0653   5.4970

          k =-0.3125 0.5625 0.3125 (  2886 PWs)   bands (ev):

   -14.3736 -14.3614 -14.2945 -14.2210 -14.2071 -14.0888 -14.0589 -14.0331
   -13.9558 -13.9416  -1.6435   1.5809   5.4047   5.9517

          k = 0.5625-0.3125 1.1875 (  2888 PWs)   bands (ev):

   -14.3857 -14.3725 -14.2674 -14.2036 -14.1818 -14.1157 -14.0799 -14.0568
   -13.9415 -13.9286  -1.2199   1.1481   4.5396   5.6205

          k = 0.4375-0.1875 1.0625 (  2883 PWs)   bands (ev):

   -14.3939 -14.3803 -14.2415 -14.1709 -14.1577 -14.1452 -14.1169 -14.0735
   -13.9320 -13.9187  -0.6426   0.5839   4.1322   5.1051

          k =-0.3125-1.1875 0.3125 (  2884 PWs)   bands (ev):

   -14.3908 -14.3718 -14.2651 -14.1832 -14.1744 -14.1319 -14.0965 -14.0544
   -13.9415 -13.9225  -0.9794   0.8851   4.3221   5.5775

          k =-0.4375 0.4375 0.4375 (  2872 PWs)   bands (ev):

   -14.3605 -14.3605 -14.3054 -14.2246 -14.2246 -14.0583 -14.0583 -14.0313
   -13.9553 -13.9553  -1.6068   1.3369   6.2624   6.2624

          k = 0.4375-0.4375 1.3125 (  2876 PWs)   bands (ev):

   -14.3753 -14.3655 -14.2848 -14.2155 -14.2097 -14.0729 -14.0716 -14.0489
   -13.9488 -13.9401  -1.3750   1.1365   5.1752   6.0607

     highest occupied level (ev):     7.2933

!    total energy              =    -318.48933229 Ry
     Harris-Foulkes estimate   =    -318.48933229 Ry
     estimated scf accuracy    <          2.3E-09 Ry

     The total energy is the sum of the following terms:

     one-electron contribution =    -159.45806618 Ry
     hartree contribution      =      96.56712844 Ry
     xc contribution           =     -85.98997421 Ry
     ewald contribution        =    -169.60842035 Ry

     convergence has been achieved in   7 iterations

     Writing output data file sn.alpha.12.45.save

     init_run     :      1.21s CPU      1.25s WALL (       1 calls)
     electrons    :     17.32s CPU     17.95s WALL (       1 calls)

     Called by init_run:
     wfcinit      :      0.74s CPU      0.77s WALL (       1 calls)
     potinit      :      0.06s CPU      0.06s WALL (       1 calls)

     Called by electrons:
     c_bands      :     13.78s CPU     14.12s WALL (       7 calls)
     sum_band     :      2.72s CPU      2.87s WALL (       7 calls)
     v_of_rho     :      0.37s CPU      0.39s WALL (       8 calls)
     newd         :      0.50s CPU      0.57s WALL (       8 calls)
     mix_rho      :      0.03s CPU      0.03s WALL (       7 calls)

     Called by c_bands:
     init_us_2    :      0.38s CPU      0.39s WALL (     900 calls)
     cegterg      :     13.08s CPU     13.42s WALL (     420 calls)

     Called by sum_band:
     sum_band:bec :      0.00s CPU      0.00s WALL (     420 calls)
     addusdens    :      0.53s CPU      0.63s WALL (       7 calls)

     Called by *egterg:
     h_psi        :     11.28s CPU     11.60s WALL (    1731 calls)
     s_psi        :      0.21s CPU      0.21s WALL (    1731 calls)
     g_psi        :      0.07s CPU      0.08s WALL (    1251 calls)
     cdiaghg      :      0.74s CPU      0.74s WALL (    1671 calls)

     Called by h_psi:
     h_psi:pot    :     11.18s CPU     11.50s WALL (    1731 calls)
     h_psi:calbec :      0.48s CPU      0.49s WALL (    1731 calls)
     vloc_psi     :     10.44s CPU     10.73s WALL (    1731 calls)
     add_vuspsi   :      0.26s CPU      0.27s WALL (    1731 calls)

     General routines
     calbec       :      0.60s CPU      0.61s WALL (    2151 calls)
     fft          :      0.18s CPU      0.20s WALL (     124 calls)
     ffts         :      0.01s CPU      0.01s WALL (      15 calls)
     fftw         :      9.76s CPU     10.00s WALL (   45648 calls)
     interpolate  :      0.03s CPU      0.04s WALL (      15 calls)
     davcio       :      0.00s CPU      0.00s WALL (      60 calls)

     Parallel routines
     fft_scatter  :      1.63s CPU      1.64s WALL (   45787 calls)

     PWSCF        :    18.70s CPU        20.39s WALL


   This run was terminated on:  16:10:52  11Nov2017            

=------------------------------------------------------------------------------=
   JOB DONE.
=------------------------------------------------------------------------------=
