
     Program PWSCF v.6.1 (svn rev. 13369) starts on 13Nov2017 at  9:57:21 

     This program is part of the open-source Quantum ESPRESSO suite
     for quantum simulation of materials; please cite
         "P. Giannozzi et al., J. Phys.:Condens. Matter 21 395502 (2009);
          URL http://www.quantum-espresso.org", 
     in publications or presentations arising from this work. More details at
     http://www.quantum-espresso.org/quote

     Parallel version (MPI), running on     4 processors
     R & G space division:  proc/nbgrp/npool/nimage =       4
     Waiting for input...
     Reading input from standard input

     Current dimensions of program PWSCF are:
     Max number of different atomic species (ntypx) = 10
     Max number of k-points (npk) =  40000
     Max angular momentum in pseudopotentials (lmaxx) =  3

     Subspace diagonalization in iterative solution of the eigenvalue problem:
     a serial algorithm will be used


     Parallelization info
     --------------------
     sticks:   dense  smooth     PW     G-vecs:    dense   smooth      PW
     Min        1076     433    179                14365     3658     991
     Max        1078     434    180                14366     3659     992
     Sum        4309    1733    717                57461    14633    3965



     bravais-lattice index     =            0
     lattice parameter (alat)  =      10.5500  a.u.
     unit-cell volume          =     305.1091 (a.u.)^3
     number of atoms/cell      =            2
     number of atomic types    =            1
     number of electrons       =        28.00
     number of Kohn-Sham states=           18
     kinetic-energy cutoff     =      50.0000  Ry
     charge density cutoff     =     500.0000  Ry
     convergence threshold     =      1.0E-08
     mixing beta               =       0.7000
     number of iterations used =            8  plain     mixing
     Exchange-correlation      =  SLA  PW   PBX  PBC ( 1  4  3  4 0 0)

     celldm(1)=  10.550000  celldm(2)=   0.000000  celldm(3)=   0.000000
     celldm(4)=   0.000000  celldm(5)=   0.000000  celldm(6)=   0.000000

     crystal axes: (cart. coord. in units of alat)
               a(1) = (   0.986837   0.000000   0.000000 )  
               a(2) = (   0.000000   0.986837   0.000000 )  
               a(3) = (   0.493419   0.493419   0.266813 )  

     reciprocal axes: (cart. coord. in units 2 pi/alat)
               b(1) = (  1.013339  0.000000 -1.873974 )  
               b(2) = (  0.000000  1.013339 -1.873974 )  
               b(3) = (  0.000000  0.000000  3.747943 )  


     PseudoPot. # 1 for Sn read from file:
     /home/s1333534/quantum_espresso/qe-6.1/pseudo/sn_pbe_v1.4.uspp.F.UPF
     MD5 check sum: 469debedee59599fedebd795477fea03
     Pseudo is Ultrasoft + core correction, Zval = 14.0
     Generated by new atomic code, or converted to UPF format
     Using radial grid of  891 points,  6 beta functions with: 
                l(1) =   0
                l(2) =   0
                l(3) =   1
                l(4) =   1
                l(5) =   2
                l(6) =   2
     Q(r) pseudized with  8 coefficients,  rinner =    1.350   1.350   1.350
                                                       1.350   1.350

     atomic species   valence    mass     pseudopotential
        Sn            14.00   118.71000     Sn( 1.00)

     No symmetry found



   Cartesian axes

     site n.     atom                  positions (alat units)
         1           Sn  tau(   1) = (   1.0725850   1.3160481   0.0533919  )
         2           Sn  tau(   2) = (   0.5198369   0.2763739   0.0177973  )

     number of k points=   800  Marzari-Vanderbilt smearing, width (Ry)=  0.0200

     Number of k-points >= 100: set verbosity='high' to print them.

     Dense  grid:    57461 G-vectors     FFT dimensions: (  75,  75,  60)

     Smooth grid:    14633 G-vectors     FFT dimensions: (  48,  48,  36)

     Estimated max dynamical RAM per process >     112.98MB

     Estimated total allocated dynamical RAM >     451.94MB

     Initial potential from superposition of free atoms

     starting charge   25.99991, renormalised to   28.00000
     Starting wfc are   18 randomized atomic wfcs

     total cpu time spent up to now is       14.5 secs

     per-process dynamical memory:   124.1 Mb

     Self-consistent Calculation

     iteration #  1     ecut=    50.00 Ry     beta=0.70
     Davidson diagonalization with overlap
     ethr =  1.00E-02,  avg # of iterations =  4.1

     total cpu time spent up to now is       70.3 secs

     total energy              =    -317.48190350 Ry
     Harris-Foulkes estimate   =    -319.35249276 Ry
     estimated scf accuracy    <       2.29416613 Ry

     iteration #  2     ecut=    50.00 Ry     beta=0.70
     Davidson diagonalization with overlap
     ethr =  8.19E-03,  avg # of iterations =  2.4

     total cpu time spent up to now is      117.2 secs

     total energy              =    -318.29027111 Ry
     Harris-Foulkes estimate   =    -318.56907085 Ry
     estimated scf accuracy    <       0.41053045 Ry

     iteration #  3     ecut=    50.00 Ry     beta=0.70
     Davidson diagonalization with overlap
     ethr =  1.47E-03,  avg # of iterations =  2.0

     total cpu time spent up to now is      163.1 secs

     total energy              =    -318.37525084 Ry
     Harris-Foulkes estimate   =    -318.37679156 Ry
     estimated scf accuracy    <       0.00263912 Ry

     iteration #  4     ecut=    50.00 Ry     beta=0.70
     Davidson diagonalization with overlap
     ethr =  9.43E-06,  avg # of iterations =  3.8

     total cpu time spent up to now is      216.5 secs

     total energy              =    -318.37583131 Ry
     Harris-Foulkes estimate   =    -318.37596627 Ry
     estimated scf accuracy    <       0.00027335 Ry

     iteration #  5     ecut=    50.00 Ry     beta=0.70
     Davidson diagonalization with overlap
     ethr =  9.76E-07,  avg # of iterations =  2.5

     total cpu time spent up to now is      256.5 secs

     total energy              =    -318.37587386 Ry
     Harris-Foulkes estimate   =    -318.37588301 Ry
     estimated scf accuracy    <       0.00001619 Ry

     iteration #  6     ecut=    50.00 Ry     beta=0.70
     Davidson diagonalization with overlap
     ethr =  5.78E-08,  avg # of iterations =  3.0

     total cpu time spent up to now is      306.5 secs

     total energy              =    -318.37587955 Ry
     Harris-Foulkes estimate   =    -318.37587996 Ry
     estimated scf accuracy    <       0.00000078 Ry

     iteration #  7     ecut=    50.00 Ry     beta=0.70
     Davidson diagonalization with overlap
     ethr =  2.80E-09,  avg # of iterations =  3.0

     total cpu time spent up to now is      354.9 secs

     total energy              =    -318.37587970 Ry
     Harris-Foulkes estimate   =    -318.37587980 Ry
     estimated scf accuracy    <       0.00000015 Ry

     iteration #  8     ecut=    50.00 Ry     beta=0.70
     Davidson diagonalization with overlap
     ethr =  5.52E-10,  avg # of iterations =  2.0

     total cpu time spent up to now is      400.8 secs

     End of self-consistent calculation

     Number of k-points >= 100: set verbosity='high' to print the bands.

     the Fermi energy is    13.8236 ev

!    total energy              =    -318.37587974 Ry
     Harris-Foulkes estimate   =    -318.37587974 Ry
     estimated scf accuracy    <          2.6E-09 Ry

     The total energy is the sum of the following terms:

     one-electron contribution =     -96.94906831 Ry
     hartree contribution      =      71.76199894 Ry
     xc contribution           =     -86.31217812 Ry
     ewald contribution        =    -206.87665540 Ry
     smearing contrib. (-TS)   =       0.00002315 Ry

     convergence has been achieved in   8 iterations

     Writing output data file sn.beta.10.55.save

     init_run     :     13.56s CPU     14.19s WALL (       1 calls)
     electrons    :    374.86s CPU    386.44s WALL (       1 calls)

     Called by init_run:
     wfcinit      :     12.61s CPU     13.22s WALL (       1 calls)
     potinit      :      0.25s CPU      0.26s WALL (       1 calls)

     Called by electrons:
     c_bands      :    307.75s CPU    317.23s WALL (       8 calls)
     sum_band     :     65.65s CPU     67.53s WALL (       8 calls)
     v_of_rho     :      0.74s CPU      0.77s WALL (       9 calls)
     newd         :      0.75s CPU      0.78s WALL (       9 calls)
     mix_rho      :      0.07s CPU      0.07s WALL (       8 calls)

     Called by c_bands:
     init_us_2    :      3.21s CPU      3.28s WALL (   13600 calls)
     cegterg      :    301.11s CPU    310.42s WALL (    6400 calls)

     Called by sum_band:
     sum_band:bec :      0.06s CPU      0.09s WALL (    6400 calls)
     addusdens    :      0.83s CPU      0.92s WALL (       8 calls)

     Called by *egterg:
     h_psi        :    275.80s CPU    284.83s WALL (   25461 calls)
     s_psi        :      2.10s CPU      2.12s WALL (   25461 calls)
     g_psi        :      0.77s CPU      0.79s WALL (   18261 calls)
     cdiaghg      :     16.03s CPU     16.28s WALL (   24661 calls)

     Called by h_psi:
     h_psi:pot    :    274.82s CPU    283.76s WALL (   25461 calls)
     h_psi:calbec :      5.87s CPU      6.00s WALL (   25461 calls)
     vloc_psi     :    266.19s CPU    274.89s WALL (   25461 calls)
     add_vuspsi   :      2.75s CPU      2.78s WALL (   25461 calls)

     General routines
     calbec       :      7.63s CPU      7.78s WALL (   31861 calls)
     fft          :      0.49s CPU      0.53s WALL (     140 calls)
     ffts         :      0.01s CPU      0.01s WALL (      17 calls)
     fftw         :    203.22s CPU    209.59s WALL (  805288 calls)
     interpolate  :      0.08s CPU      0.09s WALL (      17 calls)
     davcio       :      0.01s CPU      0.03s WALL (     800 calls)

     Parallel routines
     fft_scatter  :     49.75s CPU     51.39s WALL (  805445 calls)

     PWSCF        :  6m29.44s CPU     6m57.35s WALL


   This run was terminated on:  10: 4:18  13Nov2017            

=------------------------------------------------------------------------------=
   JOB DONE.
=------------------------------------------------------------------------------=
