
     Program PWSCF v.6.1 (svn rev. 13369) starts on 12Nov2017 at 12:58:42 

     This program is part of the open-source Quantum ESPRESSO suite
     for quantum simulation of materials; please cite
         "P. Giannozzi et al., J. Phys.:Condens. Matter 21 395502 (2009);
          URL http://www.quantum-espresso.org", 
     in publications or presentations arising from this work. More details at
     http://www.quantum-espresso.org/quote

     Parallel version (MPI), running on     4 processors
     R & G space division:  proc/nbgrp/npool/nimage =       4
     Waiting for input...
     Reading input from standard input
     Message from routine read_cards :
     DEPRECATED: no units specified in ATOMIC_POSITIONS card
     Message from routine read_cards :
     ATOMIC_POSITIONS: units set to alat

     Current dimensions of program PWSCF are:
     Max number of different atomic species (ntypx) = 10
     Max number of k-points (npk) =  40000
     Max angular momentum in pseudopotentials (lmaxx) =  3

     Subspace diagonalization in iterative solution of the eigenvalue problem:
     a serial algorithm will be used


     Parallelization info
     --------------------
     sticks:   dense  smooth     PW     G-vecs:    dense   smooth      PW
     Min         108      52     21                 1489      520     132
     Max         109      53     22                 1492      522     135
     Sum         433     211     85                 5961     2085     531



     bravais-lattice index     =            2
     lattice parameter (alat)  =      12.5650  a.u.
     unit-cell volume          =     495.9381 (a.u.)^3
     number of atoms/cell      =            2
     number of atomic types    =            1
     number of electrons       =        28.00
     number of Kohn-Sham states=           14
     kinetic-energy cutoff     =      10.0000  Ry
     charge density cutoff     =      80.0000  Ry
     convergence threshold     =      1.0E-08
     mixing beta               =       0.7000
     number of iterations used =            8  plain     mixing
     Exchange-correlation      =  SLA  PW   PBX  PBC ( 1  4  3  4 0 0)

     celldm(1)=  12.565000  celldm(2)=   0.000000  celldm(3)=   0.000000
     celldm(4)=   0.000000  celldm(5)=   0.000000  celldm(6)=   0.000000

     crystal axes: (cart. coord. in units of alat)
               a(1) = (  -0.500000   0.000000   0.500000 )  
               a(2) = (   0.000000   0.500000   0.500000 )  
               a(3) = (  -0.500000   0.500000   0.000000 )  

     reciprocal axes: (cart. coord. in units 2 pi/alat)
               b(1) = ( -1.000000 -1.000000  1.000000 )  
               b(2) = (  1.000000  1.000000  1.000000 )  
               b(3) = ( -1.000000  1.000000 -1.000000 )  


     PseudoPot. # 1 for Sn read from file:
     /home/s1333534/quantum_espresso/qe-6.1/pseudo/sn_pbe_v1.4.uspp.F.UPF
     MD5 check sum: 469debedee59599fedebd795477fea03
     Pseudo is Ultrasoft + core correction, Zval = 14.0
     Generated by new atomic code, or converted to UPF format
     Using radial grid of  891 points,  6 beta functions with: 
                l(1) =   0
                l(2) =   0
                l(3) =   1
                l(4) =   1
                l(5) =   2
                l(6) =   2
     Q(r) pseudized with  8 coefficients,  rinner =    1.350   1.350   1.350
                                                       1.350   1.350

     atomic species   valence    mass     pseudopotential
        Sn            14.00   118.71000     Sn( 1.00)

     24 Sym. Ops. (no inversion) found
          (note: 24 additional sym.ops. were found but ignored
           their fractional translations are incommensurate with FFT grid)


   Cartesian axes

     site n.     atom                  positions (alat units)
         1           Sn  tau(   1) = (   0.0000000   0.0000000   0.0000000  )
         2           Sn  tau(   2) = (   0.2500000   0.2500000   0.2500000  )

     number of k points=    60
                       cart. coord. in units 2pi/alat
        k(    1) = (  -0.0625000   0.0625000   0.0625000), wk =   0.0078125
        k(    2) = (  -0.1875000   0.1875000  -0.0625000), wk =   0.0234375
        k(    3) = (  -0.3125000   0.3125000  -0.1875000), wk =   0.0234375
        k(    4) = (  -0.4375000   0.4375000  -0.3125000), wk =   0.0234375
        k(    5) = (   0.4375000  -0.4375000   0.5625000), wk =   0.0234375
        k(    6) = (   0.3125000  -0.3125000   0.4375000), wk =   0.0234375
        k(    7) = (   0.1875000  -0.1875000   0.3125000), wk =   0.0234375
        k(    8) = (   0.0625000  -0.0625000   0.1875000), wk =   0.0234375
        k(    9) = (  -0.0625000   0.3125000   0.0625000), wk =   0.0234375
        k(   10) = (  -0.1875000   0.4375000  -0.0625000), wk =   0.0468750
        k(   11) = (  -0.3125000   0.5625000  -0.1875000), wk =   0.0468750
        k(   12) = (   0.5625000  -0.3125000   0.6875000), wk =   0.0468750
        k(   13) = (   0.4375000  -0.1875000   0.5625000), wk =   0.0468750
        k(   14) = (   0.3125000  -0.0625000   0.4375000), wk =   0.0468750
        k(   15) = (   0.1875000   0.0625000   0.3125000), wk =   0.0468750
        k(   16) = (  -0.0625000   0.5625000   0.0625000), wk =   0.0234375
        k(   17) = (  -0.1875000   0.6875000  -0.0625000), wk =   0.0468750
        k(   18) = (   0.6875000  -0.1875000   0.8125000), wk =   0.0468750
        k(   19) = (   0.5625000  -0.0625000   0.6875000), wk =   0.0468750
        k(   20) = (   0.4375000   0.0625000   0.5625000), wk =   0.0468750
        k(   21) = (   0.3125000   0.1875000   0.4375000), wk =   0.0468750
        k(   22) = (  -0.0625000   0.8125000   0.0625000), wk =   0.0234375
        k(   23) = (   0.8125000  -0.0625000   0.9375000), wk =   0.0468750
        k(   24) = (   0.6875000   0.0625000   0.8125000), wk =   0.0468750
        k(   25) = (   0.5625000   0.1875000   0.6875000), wk =   0.0468750
        k(   26) = (   0.4375000   0.3125000   0.5625000), wk =   0.0468750
        k(   27) = (  -0.0625000  -0.9375000   0.0625000), wk =   0.0234375
        k(   28) = (  -0.1875000  -0.8125000  -0.0625000), wk =   0.0468750
        k(   29) = (  -0.3125000  -0.6875000  -0.1875000), wk =   0.0468750
        k(   30) = (  -0.0625000  -0.6875000   0.0625000), wk =   0.0234375
        k(   31) = (  -0.1875000  -0.5625000  -0.0625000), wk =   0.0468750
        k(   32) = (  -0.0625000  -0.4375000   0.0625000), wk =   0.0234375
        k(   33) = (  -0.1875000   0.1875000   0.1875000), wk =   0.0078125
        k(   34) = (  -0.3125000   0.3125000   0.0625000), wk =   0.0234375
        k(   35) = (  -0.4375000   0.4375000  -0.0625000), wk =   0.0234375
        k(   36) = (   0.4375000  -0.4375000   0.8125000), wk =   0.0234375
        k(   37) = (   0.3125000  -0.3125000   0.6875000), wk =   0.0234375
        k(   38) = (   0.1875000  -0.1875000   0.5625000), wk =   0.0234375
        k(   39) = (  -0.1875000   0.4375000   0.1875000), wk =   0.0234375
        k(   40) = (  -0.3125000   0.5625000   0.0625000), wk =   0.0468750
        k(   41) = (   0.5625000  -0.3125000   0.9375000), wk =   0.0468750
        k(   42) = (   0.4375000  -0.1875000   0.8125000), wk =   0.0468750
        k(   43) = (   0.3125000  -0.0625000   0.6875000), wk =   0.0468750
        k(   44) = (  -0.1875000   0.6875000   0.1875000), wk =   0.0234375
        k(   45) = (   0.6875000  -0.1875000   1.0625000), wk =   0.0468750
        k(   46) = (   0.5625000  -0.0625000   0.9375000), wk =   0.0468750
        k(   47) = (   0.4375000   0.0625000   0.8125000), wk =   0.0468750
        k(   48) = (  -0.1875000  -1.0625000   0.1875000), wk =   0.0234375
        k(   49) = (  -0.3125000  -0.9375000   0.0625000), wk =   0.0468750
        k(   50) = (  -0.1875000  -0.8125000   0.1875000), wk =   0.0234375
        k(   51) = (  -0.3125000   0.3125000   0.3125000), wk =   0.0078125
        k(   52) = (  -0.4375000   0.4375000   0.1875000), wk =   0.0234375
        k(   53) = (   0.4375000  -0.4375000   1.0625000), wk =   0.0234375
        k(   54) = (   0.3125000  -0.3125000   0.9375000), wk =   0.0234375
        k(   55) = (  -0.3125000   0.5625000   0.3125000), wk =   0.0234375
        k(   56) = (   0.5625000  -0.3125000   1.1875000), wk =   0.0468750
        k(   57) = (   0.4375000  -0.1875000   1.0625000), wk =   0.0468750
        k(   58) = (  -0.3125000  -1.1875000   0.3125000), wk =   0.0234375
        k(   59) = (  -0.4375000   0.4375000   0.4375000), wk =   0.0078125
        k(   60) = (   0.4375000  -0.4375000   1.3125000), wk =   0.0234375

     Dense  grid:     5961 G-vectors     FFT dimensions: (  25,  25,  25)

     Smooth grid:     2085 G-vectors     FFT dimensions: (  18,  18,  18)

     Estimated max dynamical RAM per process >       2.00MB

     Estimated total allocated dynamical RAM >       8.01MB

     Check: negative/imaginary core charge=   -0.000739    0.000000

     Initial potential from superposition of free atoms

     starting charge   25.99991, renormalised to   28.00000
     Starting wfc are   18 randomized atomic wfcs

     total cpu time spent up to now is        0.3 secs

     per-process dynamical memory:     7.6 Mb

     Self-consistent Calculation

     iteration #  1     ecut=    10.00 Ry     beta=0.70
     Davidson diagonalization with overlap
     ethr =  1.00E-02,  avg # of iterations =  2.0

     total cpu time spent up to now is        0.5 secs

     total energy              =    -311.84973780 Ry
     Harris-Foulkes estimate   =    -316.58836047 Ry
     estimated scf accuracy    <       5.63694073 Ry

     iteration #  2     ecut=    10.00 Ry     beta=0.70
     Davidson diagonalization with overlap
     ethr =  1.00E-02,  avg # of iterations =  2.6

     total cpu time spent up to now is        0.9 secs

     total energy              =    -313.77134058 Ry
     Harris-Foulkes estimate   =    -314.22143122 Ry
     estimated scf accuracy    <       0.62828173 Ry

     iteration #  3     ecut=    10.00 Ry     beta=0.70
     Davidson diagonalization with overlap
     ethr =  2.24E-03,  avg # of iterations =  2.1

     total cpu time spent up to now is        1.2 secs

     total energy              =    -313.91998341 Ry
     Harris-Foulkes estimate   =    -313.92060024 Ry
     estimated scf accuracy    <       0.00148577 Ry

     iteration #  4     ecut=    10.00 Ry     beta=0.70
     Davidson diagonalization with overlap
     ethr =  5.31E-06,  avg # of iterations =  3.5

     total cpu time spent up to now is        1.5 secs

     total energy              =    -313.92069688 Ry
     Harris-Foulkes estimate   =    -313.92069390 Ry
     estimated scf accuracy    <       0.00002557 Ry

     iteration #  5     ecut=    10.00 Ry     beta=0.70
     Davidson diagonalization with overlap
     ethr =  9.13E-08,  avg # of iterations =  2.3

     total cpu time spent up to now is        1.7 secs

     total energy              =    -313.92070364 Ry
     Harris-Foulkes estimate   =    -313.92070256 Ry
     estimated scf accuracy    <       0.00000127 Ry

     iteration #  6     ecut=    10.00 Ry     beta=0.70
     Davidson diagonalization with overlap
     ethr =  4.52E-09,  avg # of iterations =  2.5

     total cpu time spent up to now is        2.0 secs

     total energy              =    -313.92070438 Ry
     Harris-Foulkes estimate   =    -313.92070379 Ry
     estimated scf accuracy    <       0.00000004 Ry

     iteration #  7     ecut=    10.00 Ry     beta=0.70
     Davidson diagonalization with overlap
     ethr =  1.41E-10,  avg # of iterations =  2.7

     total cpu time spent up to now is        2.3 secs

     End of self-consistent calculation

          k =-0.0625 0.0625 0.0625 (   271 PWs)   bands (ev):

   -17.1373 -17.1373 -17.1363 -17.0687 -17.0687 -17.0410 -16.9417 -16.9417
   -16.6174 -16.6174  -3.2811   4.8387   7.0250   7.0250

          k =-0.1875 0.1875-0.0625 (   271 PWs)   bands (ev):

   -17.6093 -17.1843 -17.0943 -17.0814 -17.0609 -16.9976 -16.9937 -16.6223
   -16.5823 -16.1488  -3.0891   3.8766   6.3609   6.9055

          k =-0.3125 0.3125-0.1875 (   273 PWs)   bands (ev):

   -17.6712 -17.3800 -17.2536 -17.1991 -17.1907 -17.0515 -16.8902 -16.8547
   -16.5116 -16.2024  -2.6725   2.3853   5.7927   6.4986

          k =-0.4375 0.4375-0.3125 (   265 PWs)   bands (ev):

   -17.4232 -17.3033 -17.2310 -17.1262 -16.7571 -16.5905 -16.2703 -16.2483
   -15.7144 -15.3255  -2.0834   1.1903   5.5542   6.1228

          k = 0.4375-0.4375 0.5625 (   265 PWs)   bands (ev):

   -17.3815 -17.3552 -17.2929 -17.1706 -16.7956 -16.6302 -15.9667 -15.9649
   -15.8042 -15.6753  -1.8051   0.7625   5.5424   5.9401

          k = 0.3125-0.3125 0.4375 (   266 PWs)   bands (ev):

   -17.5536 -17.3628 -17.1907 -17.0934 -16.7625 -16.6580 -16.3903 -16.3572
   -15.9050 -15.1826  -2.2747   1.5431   5.7535   6.0002

          k = 0.1875-0.1875 0.3125 (   274 PWs)   bands (ev):

   -17.6859 -17.2397 -17.2145 -17.0961 -17.0735 -17.0730 -16.9848 -16.8511
   -16.8453 -16.7948  -2.8627   2.8836   6.2093   6.3103

          k = 0.0625-0.0625 0.1875 (   269 PWs)   bands (ev):

   -17.1302 -17.1208 -17.1123 -17.0566 -17.0008 -16.9755 -16.7783 -16.5992
   -16.5944 -16.2074  -3.1723   4.3336   6.7139   6.7179

          k =-0.0625 0.3125 0.0625 (   275 PWs)   bands (ev):

   -17.6016 -17.5366 -17.3227 -17.1925 -17.1418 -17.1077 -16.9523 -16.9367
   -16.6972 -16.5618  -3.0205   3.5890   6.2237   6.2402

          k =-0.1875 0.4375-0.0625 (   274 PWs)   bands (ev):

   -17.7530 -17.6039 -17.3547 -17.2714 -17.1492 -17.0978 -16.9151 -16.6065
   -16.3857 -16.1418  -2.6614   2.5042   5.4268   5.9874

          k =-0.3125 0.5625-0.1875 (   265 PWs)   bands (ev):

   -17.4202 -17.3313 -17.1375 -17.0248 -16.6788 -16.4665 -16.3224 -16.0680
   -15.8687 -15.7110  -2.0782   1.3746   4.8967   5.7188

          k = 0.5625-0.3125 0.6875 (   259 PWs)   bands (ev):

   -17.2662 -17.1639 -16.9810 -16.6464 -16.5338 -16.0464 -15.9938 -15.7493
   -15.3016 -14.9662  -1.6262   0.6987   4.6379   5.6649

          k = 0.4375-0.1875 0.5625 (   263 PWs)   bands (ev):

   -17.3590 -17.0808 -17.0243 -16.8926 -16.6962 -16.4943 -16.2945 -15.8943
   -15.8272 -15.4531  -1.8833   1.0661   4.6371   5.8604

          k = 0.3125-0.0625 0.4375 (   268 PWs)   bands (ev):

   -17.3931 -17.3199 -17.1906 -17.0708 -16.8935 -16.6704 -16.5427 -16.4592
   -16.2373 -15.8906  -2.4989   2.1313   5.0052   6.2507

          k = 0.1875 0.0625 0.3125 (   276 PWs)   bands (ev):

   -17.8780 -17.6898 -17.3240 -17.2287 -17.1511 -17.1098 -17.0611 -16.8830
   -16.6300 -16.4731  -2.9374   3.2017   5.8590   6.5217

          k =-0.0625 0.5625 0.0625 (   266 PWs)   bands (ev):

   -17.4163 -17.2646 -17.0566 -16.8867 -16.7765 -16.5510 -16.2318 -16.1386
   -15.9977 -15.9381  -2.3708   2.0326   5.3352   5.4402

          k =-0.1875 0.6875-0.0625 (   262 PWs)   bands (ev):

   -17.3194 -17.0705 -16.7918 -16.6120 -16.4730 -16.3458 -16.3122 -15.9943
   -15.7474 -15.6253  -1.8539   1.1757   4.7750   5.1791

          k = 0.6875-0.1875 0.8125 (   260 PWs)   bands (ev):

   -17.5154 -17.0030 -16.9056 -16.5659 -16.2985 -16.1388 -15.8718 -15.7336
   -15.6429 -15.5057  -1.2703   0.4196   4.1866   5.1553

          k = 0.5625-0.0625 0.6875 (   265 PWs)   bands (ev):

   -17.4166 -17.1821 -16.9859 -16.8322 -16.7229 -16.6139 -16.2685 -16.1816
   -16.1207 -15.7186  -1.3738   0.4696   3.9651   5.4092

          k = 0.4375 0.0625 0.5625 (   265 PWs)   bands (ev):

   -17.2715 -17.2497 -17.1697 -16.9822 -16.6984 -16.6148 -16.3740 -16.0929
   -15.8779 -15.7992  -1.9098   1.1964   4.3421   5.8362

          k = 0.3125 0.1875 0.4375 (   268 PWs)   bands (ev):

   -17.3952 -17.2998 -17.2366 -17.1346 -16.9322 -16.7872 -16.6230 -16.3866
   -15.9633 -15.9069  -2.4065   1.8807   5.3482   6.1315

          k =-0.0625 0.8125 0.0625 (   261 PWs)   bands (ev):

   -17.5084 -17.3495 -16.6360 -16.4150 -16.3412 -16.1767 -15.9867 -15.7960
   -15.5798 -15.5299  -1.4000   0.5683   4.8244   4.9592

          k = 0.8125-0.0625 0.9375 (   264 PWs)   bands (ev):

   -17.6453 -17.2861 -17.0928 -17.0521 -16.6953 -16.3448 -16.1362 -15.8322
   -15.6441 -15.2863  -0.7942  -0.1555   4.4764   4.8019

          k = 0.6875 0.0625 0.8125 (   264 PWs)   bands (ev):

   -17.4296 -17.2190 -17.1346 -16.8214 -16.5410 -16.4825 -16.3102 -16.0922
   -15.7468 -15.6365  -0.9275  -0.0112   4.0216   5.0410

          k = 0.5625 0.1875 0.6875 (   261 PWs)   bands (ev):

   -17.2897 -17.0425 -16.8272 -16.6872 -16.3780 -16.3276 -16.2139 -15.9661
   -15.8115 -15.2757  -1.4519   0.5400   4.2134   5.4980

          k = 0.4375 0.3125 0.5625 (   261 PWs)   bands (ev):

   -17.2691 -17.2412 -17.0346 -16.8821 -16.6902 -16.2674 -16.2120 -15.7727
   -15.3581 -15.0659  -1.8465   0.9143   5.1274   5.8909

          k =-0.0625-0.9375 0.0625 (   259 PWs)   bands (ev):

   -17.4765 -17.1557 -16.9279 -16.6760 -16.2993 -15.8039 -15.6592 -15.5492
   -15.4124 -15.1315  -0.7996  -0.1364   4.7263   4.8767

          k =-0.1875-0.8125-0.0625 (   262 PWs)   bands (ev):

   -17.3233 -17.1633 -16.9058 -16.7248 -16.5270 -16.3031 -16.2270 -15.8207
   -15.6777 -15.5118  -1.3470   0.5086   4.5773   4.9350

          k =-0.3125-0.6875-0.1875 (   262 PWs)   bands (ev):

   -17.5443 -17.0748 -16.8934 -16.6979 -16.5014 -16.3504 -16.1284 -15.8807
   -15.7028 -15.5707  -1.6874   0.8839   4.4840   5.3811

          k =-0.0625-0.6875 0.0625 (   263 PWs)   bands (ev):

   -17.5648 -17.2022 -17.0601 -16.6198 -16.4914 -16.3178 -16.2568 -15.9615
   -15.5506 -15.5161  -1.9224   1.2867   5.0416   5.1410

          k =-0.1875-0.5625-0.0625 (   267 PWs)   bands (ev):

   -17.3564 -17.2760 -17.1020 -17.0358 -16.8337 -16.6479 -16.3552 -16.2755
   -16.1630 -15.7760  -2.2860   1.8331   5.0500   5.5385

          k =-0.0625-0.4375 0.0625 (   276 PWs)   bands (ev):

   -17.7230 -17.6791 -17.4605 -17.3710 -17.2187 -17.1126 -16.9821 -16.8308
   -16.4571 -16.3244  -2.7530   2.7657   5.7165   5.8167

          k =-0.1875 0.1875 0.1875 (   274 PWs)   bands (ev):

   -17.9057 -17.2114 -17.2114 -17.1542 -17.0440 -17.0440 -17.0192 -17.0192
   -16.6140 -16.6140  -3.0325   3.4674   6.6652   6.6652

          k =-0.3125 0.3125 0.0625 (   272 PWs)   bands (ev):

   -17.4647 -17.3445 -17.2295 -17.1394 -17.1202 -17.0740 -16.9674 -16.6073
   -16.5207 -16.1909  -2.7505   2.6814   5.4212   6.6164

          k =-0.4375 0.4375-0.0625 (   265 PWs)   bands (ev):

   -17.3029 -17.1777 -17.0778 -17.0194 -16.6465 -16.4566 -16.4446 -16.3750
   -15.9727 -15.7479  -2.2433   1.6884   4.6328   6.2266

          k = 0.4375-0.4375 0.8125 (   260 PWs)   bands (ev):

   -17.0850 -17.0734 -16.9860 -16.6685 -16.3573 -16.3165 -16.1246 -15.7192
   -15.6545 -15.4429  -1.6633   0.7882   4.4017   5.8121

          k = 0.3125-0.3125 0.6875 (   261 PWs)   bands (ev):

   -17.5457 -17.1392 -17.1016 -16.6355 -16.1897 -16.0480 -15.9914 -15.7689
   -15.7476 -15.6628  -1.6347   0.7642   4.5716   5.5642

          k = 0.1875-0.1875 0.5625 (   264 PWs)   bands (ev):

   -17.3493 -17.2041 -17.1526 -16.7065 -16.6232 -16.4349 -16.1931 -16.0990
   -15.8883 -15.7471  -2.2058   1.6664   5.0576   5.5691

          k =-0.1875 0.4375 0.1875 (   271 PWs)   bands (ev):

   -17.4489 -17.4300 -17.2709 -17.2021 -17.1456 -16.9026 -16.8808 -16.5727
   -16.2117 -16.0016  -2.5753   2.2571   5.5842   5.8797

          k =-0.3125 0.5625 0.0625 (   265 PWs)   bands (ev):

   -17.3379 -17.2242 -17.0082 -16.9362 -16.7155 -16.5726 -16.5305 -16.1454
   -15.8578 -15.6680  -2.1401   1.5498   4.6807   5.7076

          k = 0.5625-0.3125 0.9375 (   263 PWs)   bands (ev):

   -17.2988 -17.1980 -17.0551 -16.9745 -16.4560 -16.2653 -16.1188 -16.0021
   -15.8533 -15.7781  -1.5450   0.7399   4.1599   5.3204

          k = 0.4375-0.1875 0.8125 (   263 PWs)   bands (ev):

   -17.3086 -17.0849 -16.9705 -16.8320 -16.6900 -16.4545 -16.2578 -15.9273
   -15.7858 -15.6342  -1.2558   0.3565   4.1095   5.1163

          k = 0.3125-0.0625 0.6875 (   262 PWs)   bands (ev):

   -17.2103 -17.1468 -16.9253 -16.7442 -16.6209 -16.3205 -16.0282 -15.9182
   -15.8108 -15.6346  -1.7131   0.9801   4.4465   5.2328

          k =-0.1875 0.6875 0.1875 (   263 PWs)   bands (ev):

   -17.3090 -17.2566 -16.7508 -16.5727 -16.4919 -16.4125 -16.2487 -16.0988
   -15.9270 -15.7957  -1.7976   1.0680   4.6325   5.3133

          k = 0.6875-0.1875 1.0625 (   259 PWs)   bands (ev):

   -17.1562 -17.0717 -16.7295 -16.5688 -16.3381 -16.2818 -16.0650 -15.7356
   -15.4748 -15.2067  -1.2522   0.4249   4.3082   4.8763

          k = 0.5625-0.0625 0.9375 (   262 PWs)   bands (ev):

   -17.3395 -17.1822 -17.0067 -16.8337 -16.6598 -16.5085 -16.1596 -15.9711
   -15.3909 -15.3366  -0.7412  -0.1541   4.1374   4.5403

          k = 0.4375 0.0625 0.8125 (   265 PWs)   bands (ev):

   -17.2885 -17.1648 -17.0796 -16.9272 -16.7779 -16.5862 -16.4907 -16.3407
   -15.9123 -15.4981  -1.1747   0.2687   4.0869   4.8594

          k =-0.1875-1.0625 0.1875 (   264 PWs)   bands (ev):

   -17.6429 -17.2989 -17.1705 -16.9304 -16.6791 -16.6023 -16.1311 -15.7841
   -15.6239 -15.2724  -0.8377  -0.1036   4.1942   5.0251

          k =-0.3125-0.9375 0.0625 (   263 PWs)   bands (ev):

   -17.3696 -17.1551 -17.1335 -16.8062 -16.5711 -16.5031 -16.2257 -15.9918
   -15.7139 -15.3767  -0.7642  -0.1643   4.2581   4.6503

          k =-0.1875-0.8125 0.1875 (   265 PWs)   bands (ev):

   -17.8574 -17.1719 -17.1405 -16.9286 -16.7259 -16.2761 -16.1638 -16.0591
   -15.7364 -15.6331  -1.3119   0.4511   4.3406   5.0954

          k =-0.3125 0.3125 0.3125 (   262 PWs)   bands (ev):

   -17.1937 -17.1937 -16.8959 -16.8019 -16.8019 -16.3516 -16.3516 -16.3135
   -15.3052 -15.3052  -2.4953   2.0274   6.3070   6.3070

          k =-0.4375 0.4375 0.1875 (   264 PWs)   bands (ev):

   -17.2852 -17.2113 -17.1814 -16.7641 -16.6224 -16.3509 -16.3217 -16.1750
   -15.9093 -15.8558  -2.1850   1.4869   4.9880   6.2058

          k = 0.4375-0.4375 1.0625 (   264 PWs)   bands (ev):

   -17.2536 -17.1550 -17.0293 -16.8663 -16.6741 -16.4811 -16.3499 -16.0444
   -15.9830 -15.7977  -1.6531   0.8382   4.0991   5.7608

          k = 0.3125-0.3125 0.9375 (   265 PWs)   bands (ev):

   -17.6498 -17.2442 -16.9867 -16.6492 -16.6465 -16.4592 -16.4287 -16.1868
   -15.9999 -15.7731  -1.1524   0.2052   3.9223   5.3388

          k =-0.3125 0.5625 0.3125 (   268 PWs)   bands (ev):

   -17.6130 -17.3623 -17.2987 -17.1325 -17.0116 -16.7287 -16.4239 -16.3324
   -15.8828 -15.8189  -2.0015   1.1142   5.1279   5.7518

          k = 0.5625-0.3125 1.1875 (   260 PWs)   bands (ev):

   -17.1612 -16.9666 -16.9288 -16.7360 -16.4464 -16.2210 -16.1908 -15.7917
   -15.5894 -15.3030  -1.5581   0.7038   4.3451   5.4524

          k = 0.4375-0.1875 1.0625 (   265 PWs)   bands (ev):

   -17.3423 -17.1536 -17.1182 -16.9378 -16.7851 -16.5398 -16.3507 -16.2684
   -15.9460 -15.6382  -1.0529   0.1282   3.9872   4.9350

          k =-0.3125-1.1875 0.3125 (   261 PWs)   bands (ev):

   -17.3196 -17.1052 -16.7905 -16.6805 -16.3669 -16.1919 -16.1483 -15.9770
   -15.7890 -15.4536  -1.3528   0.4452   4.1460   5.4368

          k =-0.4375 0.4375 0.4375 (   269 PWs)   bands (ev):

   -17.4547 -17.4547 -17.3587 -17.3587 -17.1782 -16.6711 -16.3474 -16.3474
   -15.9892 -15.9892  -1.9652   0.9087   6.0293   6.0293

          k = 0.4375-0.4375 1.3125 (   261 PWs)   bands (ev):

   -17.2989 -17.1796 -17.0904 -16.9091 -16.3094 -16.2675 -16.1488 -15.9865
   -15.6871 -14.9980  -1.7366   0.7531   4.9273   5.8660

     highest occupied level (ev):     7.0250

!    total energy              =    -313.92070453 Ry
     Harris-Foulkes estimate   =    -313.92070439 Ry
     estimated scf accuracy    <          3.9E-09 Ry

     The total energy is the sum of the following terms:

     one-electron contribution =    -151.28954020 Ry
     hartree contribution      =      89.56826941 Ry
     xc contribution           =     -84.14333876 Ry
     ewald contribution        =    -168.05609498 Ry

     convergence has been achieved in   7 iterations


     Computing stress (Cartesian axis) and pressure

          total   stress  (Ry/bohr**3)                   (kbar)     P=-6185.26
  -0.04204655   0.00000000   0.00000000      -6185.26      0.00      0.00
   0.00000000  -0.04204655  -0.00000000          0.00  -6185.26     -0.00
   0.00000000   0.00000000  -0.04204655          0.00      0.00  -6185.26


     Writing output data file sn.alpha.10.save

     init_run     :      0.21s CPU      0.22s WALL (       1 calls)
     electrons    :      1.94s CPU      2.04s WALL (       1 calls)
     stress       :      0.10s CPU      0.10s WALL (       1 calls)

     Called by init_run:
     wfcinit      :      0.09s CPU      0.09s WALL (       1 calls)
     potinit      :      0.01s CPU      0.01s WALL (       1 calls)

     Called by electrons:
     c_bands      :      1.62s CPU      1.68s WALL (       7 calls)
     sum_band     :      0.25s CPU      0.26s WALL (       7 calls)
     v_of_rho     :      0.02s CPU      0.02s WALL (       8 calls)
     newd         :      0.05s CPU      0.05s WALL (       8 calls)
     mix_rho      :      0.01s CPU      0.01s WALL (       7 calls)

     Called by c_bands:
     init_us_2    :      0.05s CPU      0.04s WALL (     960 calls)
     cegterg      :      1.54s CPU      1.61s WALL (     420 calls)

     Called by sum_band:
     sum_band:bec :      0.00s CPU      0.00s WALL (     420 calls)
     addusdens    :      0.05s CPU      0.05s WALL (       7 calls)

     Called by *egterg:
     h_psi        :      1.01s CPU      1.05s WALL (    1543 calls)
     s_psi        :      0.03s CPU      0.02s WALL (    1543 calls)
     g_psi        :      0.00s CPU      0.01s WALL (    1063 calls)
     cdiaghg      :      0.49s CPU      0.50s WALL (    1483 calls)

     Called by h_psi:
     h_psi:pot    :      1.01s CPU      1.04s WALL (    1543 calls)
     h_psi:calbec :      0.04s CPU      0.04s WALL (    1543 calls)
     vloc_psi     :      0.94s CPU      0.98s WALL (    1543 calls)
     add_vuspsi   :      0.03s CPU      0.03s WALL (    1543 calls)

     General routines
     calbec       :      0.05s CPU      0.05s WALL (    2023 calls)
     fft          :      0.01s CPU      0.01s WALL (     138 calls)
     ffts         :      0.00s CPU      0.00s WALL (      15 calls)
     fftw         :      1.02s CPU      1.03s WALL (   39596 calls)
     interpolate  :      0.00s CPU      0.00s WALL (      15 calls)
     davcio       :      0.00s CPU      0.00s WALL (      60 calls)

     Parallel routines
     fft_scatter  :      0.18s CPU      0.20s WALL (   39749 calls)

     PWSCF        :     2.40s CPU         3.23s WALL


   This run was terminated on:  12:58:46  12Nov2017            

=------------------------------------------------------------------------------=
   JOB DONE.
=------------------------------------------------------------------------------=
