
     Program PWSCF v.6.1 (svn rev. 13369) starts on 13Nov2017 at 10:15:42 

     This program is part of the open-source Quantum ESPRESSO suite
     for quantum simulation of materials; please cite
         "P. Giannozzi et al., J. Phys.:Condens. Matter 21 395502 (2009);
          URL http://www.quantum-espresso.org", 
     in publications or presentations arising from this work. More details at
     http://www.quantum-espresso.org/quote

     Parallel version (MPI), running on     4 processors
     R & G space division:  proc/nbgrp/npool/nimage =       4
     Waiting for input...
     Reading input from standard input

     Current dimensions of program PWSCF are:
     Max number of different atomic species (ntypx) = 10
     Max number of k-points (npk) =  40000
     Max angular momentum in pseudopotentials (lmaxx) =  3

     Subspace diagonalization in iterative solution of the eigenvalue problem:
     a serial algorithm will be used


     Parallelization info
     --------------------
     sticks:   dense  smooth     PW     G-vecs:    dense   smooth      PW
     Min        1149     461    188                15857     4006    1068
     Max        1150     462    189                15858     4007    1069
     Sum        4597    1845    753                63429    16025    4273



     bravais-lattice index     =            0
     lattice parameter (alat)  =      10.9000  a.u.
     unit-cell volume          =     336.4940 (a.u.)^3
     number of atoms/cell      =            2
     number of atomic types    =            1
     number of electrons       =        28.00
     number of Kohn-Sham states=           18
     kinetic-energy cutoff     =      50.0000  Ry
     charge density cutoff     =     500.0000  Ry
     convergence threshold     =      1.0E-08
     mixing beta               =       0.7000
     number of iterations used =            8  plain     mixing
     Exchange-correlation      =  SLA  PW   PBX  PBC ( 1  4  3  4 0 0)

     celldm(1)=  10.900000  celldm(2)=   0.000000  celldm(3)=   0.000000
     celldm(4)=   0.000000  celldm(5)=   0.000000  celldm(6)=   0.000000

     crystal axes: (cart. coord. in units of alat)
               a(1) = (   0.986837   0.000000   0.000000 )  
               a(2) = (   0.000000   0.986837   0.000000 )  
               a(3) = (   0.493419   0.493419   0.266813 )  

     reciprocal axes: (cart. coord. in units 2 pi/alat)
               b(1) = (  1.013339  0.000000 -1.873974 )  
               b(2) = (  0.000000  1.013339 -1.873974 )  
               b(3) = (  0.000000  0.000000  3.747943 )  


     PseudoPot. # 1 for Sn read from file:
     /home/s1333534/quantum_espresso/qe-6.1/pseudo/sn_pbe_v1.4.uspp.F.UPF
     MD5 check sum: 469debedee59599fedebd795477fea03
     Pseudo is Ultrasoft + core correction, Zval = 14.0
     Generated by new atomic code, or converted to UPF format
     Using radial grid of  891 points,  6 beta functions with: 
                l(1) =   0
                l(2) =   0
                l(3) =   1
                l(4) =   1
                l(5) =   2
                l(6) =   2
     Q(r) pseudized with  8 coefficients,  rinner =    1.350   1.350   1.350
                                                       1.350   1.350

     atomic species   valence    mass     pseudopotential
        Sn            14.00   118.71000     Sn( 1.00)

     No symmetry found



   Cartesian axes

     site n.     atom                  positions (alat units)
         1           Sn  tau(   1) = (   1.0725850   1.3160481   0.0533919  )
         2           Sn  tau(   2) = (   0.5198369   0.2763739   0.0177973  )

     number of k points=   800  Marzari-Vanderbilt smearing, width (Ry)=  0.0200

     Number of k-points >= 100: set verbosity='high' to print them.

     Dense  grid:    63429 G-vectors     FFT dimensions: (  80,  80,  60)

     Smooth grid:    16025 G-vectors     FFT dimensions: (  50,  50,  40)

     Estimated max dynamical RAM per process >     124.84MB

     Estimated total allocated dynamical RAM >     499.36MB

     Initial potential from superposition of free atoms

     starting charge   25.99991, renormalised to   28.00000
     Starting wfc are   18 randomized atomic wfcs

     total cpu time spent up to now is       20.8 secs

     per-process dynamical memory:   137.9 Mb

     Self-consistent Calculation

     iteration #  1     ecut=    50.00 Ry     beta=0.70
     Davidson diagonalization with overlap
     ethr =  1.00E-02,  avg # of iterations =  4.0

     total cpu time spent up to now is      102.2 secs

     total energy              =    -317.49978141 Ry
     Harris-Foulkes estimate   =    -319.42094248 Ry
     estimated scf accuracy    <       2.35388092 Ry

     iteration #  2     ecut=    50.00 Ry     beta=0.70
     Davidson diagonalization with overlap
     ethr =  8.41E-03,  avg # of iterations =  2.5

     total cpu time spent up to now is      172.1 secs

     total energy              =    -318.33118354 Ry
     Harris-Foulkes estimate   =    -318.62079147 Ry
     estimated scf accuracy    <       0.42630854 Ry

     iteration #  3     ecut=    50.00 Ry     beta=0.70
     Davidson diagonalization with overlap
     ethr =  1.52E-03,  avg # of iterations =  2.0

     total cpu time spent up to now is      240.3 secs

     total energy              =    -318.41946146 Ry
     Harris-Foulkes estimate   =    -318.42110530 Ry
     estimated scf accuracy    <       0.00279325 Ry

     iteration #  4     ecut=    50.00 Ry     beta=0.70
     Davidson diagonalization with overlap
     ethr =  9.98E-06,  avg # of iterations =  3.7

     total cpu time spent up to now is      317.8 secs

     total energy              =    -318.42005889 Ry
     Harris-Foulkes estimate   =    -318.42020893 Ry
     estimated scf accuracy    <       0.00030107 Ry

     iteration #  5     ecut=    50.00 Ry     beta=0.70
     Davidson diagonalization with overlap
     ethr =  1.08E-06,  avg # of iterations =  2.6

     total cpu time spent up to now is      374.9 secs

     total energy              =    -318.42010633 Ry
     Harris-Foulkes estimate   =    -318.42011616 Ry
     estimated scf accuracy    <       0.00001734 Ry

     iteration #  6     ecut=    50.00 Ry     beta=0.70
     Davidson diagonalization with overlap
     ethr =  6.19E-08,  avg # of iterations =  3.0

     total cpu time spent up to now is      448.3 secs

     total energy              =    -318.42011265 Ry
     Harris-Foulkes estimate   =    -318.42011308 Ry
     estimated scf accuracy    <       0.00000088 Ry

     iteration #  7     ecut=    50.00 Ry     beta=0.70
     Davidson diagonalization with overlap
     ethr =  3.14E-09,  avg # of iterations =  2.9

     total cpu time spent up to now is      519.4 secs

     total energy              =    -318.42011280 Ry
     Harris-Foulkes estimate   =    -318.42011292 Ry
     estimated scf accuracy    <       0.00000017 Ry

     iteration #  8     ecut=    50.00 Ry     beta=0.70
     Davidson diagonalization with overlap
     ethr =  5.99E-10,  avg # of iterations =  2.7

     total cpu time spent up to now is      584.7 secs

     End of self-consistent calculation

     Number of k-points >= 100: set verbosity='high' to print the bands.

     the Fermi energy is    12.1138 ev

!    total energy              =    -318.42011285 Ry
     Harris-Foulkes estimate   =    -318.42011285 Ry
     estimated scf accuracy    <          3.5E-09 Ry

     The total energy is the sum of the following terms:

     one-electron contribution =    -107.36295304 Ry
     hartree contribution      =      75.35515192 Ry
     xc contribution           =     -86.17849933 Ry
     ewald contribution        =    -200.23382701 Ry
     smearing contrib. (-TS)   =       0.00001462 Ry

     convergence has been achieved in   8 iterations

     Writing output data file sn.beta.10.90.save

     init_run     :     20.31s CPU     20.76s WALL (       1 calls)
     electrons    :    551.60s CPU    563.93s WALL (       1 calls)

     Called by init_run:
     wfcinit      :     19.28s CPU     19.71s WALL (       1 calls)
     potinit      :      0.27s CPU      0.28s WALL (       1 calls)

     Called by electrons:
     c_bands      :    455.69s CPU    465.97s WALL (       8 calls)
     sum_band     :     94.29s CPU     96.18s WALL (       8 calls)
     v_of_rho     :      0.85s CPU      0.89s WALL (       9 calls)
     newd         :      0.80s CPU      0.85s WALL (       9 calls)
     mix_rho      :      0.08s CPU      0.08s WALL (       8 calls)

     Called by c_bands:
     init_us_2    :      3.76s CPU      3.85s WALL (   13600 calls)
     cegterg      :    448.13s CPU    458.26s WALL (    6400 calls)

     Called by sum_band:
     sum_band:bec :      0.08s CPU      0.09s WALL (    6400 calls)
     addusdens    :      0.93s CPU      1.01s WALL (       8 calls)

     Called by *egterg:
     h_psi        :    426.52s CPU    436.42s WALL (   25902 calls)
     s_psi        :      2.56s CPU      2.59s WALL (   25902 calls)
     g_psi        :      0.88s CPU      0.89s WALL (   18702 calls)
     cdiaghg      :     16.39s CPU     16.59s WALL (   25102 calls)

     Called by h_psi:
     h_psi:pot    :    424.98s CPU    434.86s WALL (   25902 calls)
     h_psi:calbec :      6.29s CPU      6.37s WALL (   25902 calls)
     vloc_psi     :    415.02s CPU    424.72s WALL (   25902 calls)
     add_vuspsi   :      3.64s CPU      3.67s WALL (   25902 calls)

     General routines
     calbec       :      8.33s CPU      8.42s WALL (   32302 calls)
     fft          :      0.60s CPU      0.63s WALL (     140 calls)
     ffts         :      0.01s CPU      0.01s WALL (      17 calls)
     fftw         :    329.92s CPU    337.84s WALL (  802942 calls)
     interpolate  :      0.10s CPU      0.10s WALL (      17 calls)
     davcio       :      0.02s CPU      0.04s WALL (     800 calls)

     Parallel routines
     fft_scatter  :     58.28s CPU     60.32s WALL (  803099 calls)

     PWSCF        :  9m32.95s CPU    10m 0.16s WALL


   This run was terminated on:  10:25:43  13Nov2017            

=------------------------------------------------------------------------------=
   JOB DONE.
=------------------------------------------------------------------------------=
