
     Program PWSCF v.6.1 (svn rev. 13369) starts on 11Nov2017 at 15:31:10 

     This program is part of the open-source Quantum ESPRESSO suite
     for quantum simulation of materials; please cite
         "P. Giannozzi et al., J. Phys.:Condens. Matter 21 395502 (2009);
          URL http://www.quantum-espresso.org", 
     in publications or presentations arising from this work. More details at
     http://www.quantum-espresso.org/quote

     Parallel version (MPI), running on     4 processors
     R & G space division:  proc/nbgrp/npool/nimage =       4
     Waiting for input...
     Reading input from standard input
     Message from routine read_cards :
     DEPRECATED: no units specified in ATOMIC_POSITIONS card
     Message from routine read_cards :
     ATOMIC_POSITIONS: units set to alat

     Current dimensions of program PWSCF are:
     Max number of different atomic species (ntypx) = 10
     Max number of k-points (npk) =  40000
     Max angular momentum in pseudopotentials (lmaxx) =  3

     Subspace diagonalization in iterative solution of the eigenvalue problem:
     a serial algorithm will be used


     Parallelization info
     --------------------
     sticks:   dense  smooth     PW     G-vecs:    dense   smooth      PW
     Min         433     214     66                11861     4215     722
     Max         434     215     67                11863     4218     724
     Sum        1735     859    265                47447    16865    2891



     bravais-lattice index     =            2
     lattice parameter (alat)  =      11.2000  a.u.
     unit-cell volume          =     351.2320 (a.u.)^3
     number of atoms/cell      =            2
     number of atomic types    =            1
     number of electrons       =        28.00
     number of Kohn-Sham states=           14
     kinetic-energy cutoff     =      50.0000  Ry
     charge density cutoff     =     400.0000  Ry
     convergence threshold     =      1.0E-08
     mixing beta               =       0.7000
     number of iterations used =            8  plain     mixing
     Exchange-correlation      =  SLA  PW   PBX  PBC ( 1  4  3  4 0 0)

     celldm(1)=  11.200000  celldm(2)=   0.000000  celldm(3)=   0.000000
     celldm(4)=   0.000000  celldm(5)=   0.000000  celldm(6)=   0.000000

     crystal axes: (cart. coord. in units of alat)
               a(1) = (  -0.500000   0.000000   0.500000 )  
               a(2) = (   0.000000   0.500000   0.500000 )  
               a(3) = (  -0.500000   0.500000   0.000000 )  

     reciprocal axes: (cart. coord. in units 2 pi/alat)
               b(1) = ( -1.000000 -1.000000  1.000000 )  
               b(2) = (  1.000000  1.000000  1.000000 )  
               b(3) = ( -1.000000  1.000000 -1.000000 )  


     PseudoPot. # 1 for Sn read from file:
     /home/s1333534/quantum_espresso/qe-6.1/pseudo/sn_pbe_v1.4.uspp.F.UPF
     MD5 check sum: 469debedee59599fedebd795477fea03
     Pseudo is Ultrasoft + core correction, Zval = 14.0
     Generated by new atomic code, or converted to UPF format
     Using radial grid of  891 points,  6 beta functions with: 
                l(1) =   0
                l(2) =   0
                l(3) =   1
                l(4) =   1
                l(5) =   2
                l(6) =   2
     Q(r) pseudized with  8 coefficients,  rinner =    1.350   1.350   1.350
                                                       1.350   1.350

     atomic species   valence    mass     pseudopotential
        Sn            14.00   118.71000     Sn( 1.00)

     24 Sym. Ops. (no inversion) found
          (note: 24 additional sym.ops. were found but ignored
           their fractional translations are incommensurate with FFT grid)


   Cartesian axes

     site n.     atom                  positions (alat units)
         1           Sn  tau(   1) = (   0.0000000   0.0000000   0.0000000  )
         2           Sn  tau(   2) = (   0.2500000   0.2500000   0.2500000  )

     number of k points=    60
                       cart. coord. in units 2pi/alat
        k(    1) = (  -0.0625000   0.0625000   0.0625000), wk =   0.0078125
        k(    2) = (  -0.1875000   0.1875000  -0.0625000), wk =   0.0234375
        k(    3) = (  -0.3125000   0.3125000  -0.1875000), wk =   0.0234375
        k(    4) = (  -0.4375000   0.4375000  -0.3125000), wk =   0.0234375
        k(    5) = (   0.4375000  -0.4375000   0.5625000), wk =   0.0234375
        k(    6) = (   0.3125000  -0.3125000   0.4375000), wk =   0.0234375
        k(    7) = (   0.1875000  -0.1875000   0.3125000), wk =   0.0234375
        k(    8) = (   0.0625000  -0.0625000   0.1875000), wk =   0.0234375
        k(    9) = (  -0.0625000   0.3125000   0.0625000), wk =   0.0234375
        k(   10) = (  -0.1875000   0.4375000  -0.0625000), wk =   0.0468750
        k(   11) = (  -0.3125000   0.5625000  -0.1875000), wk =   0.0468750
        k(   12) = (   0.5625000  -0.3125000   0.6875000), wk =   0.0468750
        k(   13) = (   0.4375000  -0.1875000   0.5625000), wk =   0.0468750
        k(   14) = (   0.3125000  -0.0625000   0.4375000), wk =   0.0468750
        k(   15) = (   0.1875000   0.0625000   0.3125000), wk =   0.0468750
        k(   16) = (  -0.0625000   0.5625000   0.0625000), wk =   0.0234375
        k(   17) = (  -0.1875000   0.6875000  -0.0625000), wk =   0.0468750
        k(   18) = (   0.6875000  -0.1875000   0.8125000), wk =   0.0468750
        k(   19) = (   0.5625000  -0.0625000   0.6875000), wk =   0.0468750
        k(   20) = (   0.4375000   0.0625000   0.5625000), wk =   0.0468750
        k(   21) = (   0.3125000   0.1875000   0.4375000), wk =   0.0468750
        k(   22) = (  -0.0625000   0.8125000   0.0625000), wk =   0.0234375
        k(   23) = (   0.8125000  -0.0625000   0.9375000), wk =   0.0468750
        k(   24) = (   0.6875000   0.0625000   0.8125000), wk =   0.0468750
        k(   25) = (   0.5625000   0.1875000   0.6875000), wk =   0.0468750
        k(   26) = (   0.4375000   0.3125000   0.5625000), wk =   0.0468750
        k(   27) = (  -0.0625000  -0.9375000   0.0625000), wk =   0.0234375
        k(   28) = (  -0.1875000  -0.8125000  -0.0625000), wk =   0.0468750
        k(   29) = (  -0.3125000  -0.6875000  -0.1875000), wk =   0.0468750
        k(   30) = (  -0.0625000  -0.6875000   0.0625000), wk =   0.0234375
        k(   31) = (  -0.1875000  -0.5625000  -0.0625000), wk =   0.0468750
        k(   32) = (  -0.0625000  -0.4375000   0.0625000), wk =   0.0234375
        k(   33) = (  -0.1875000   0.1875000   0.1875000), wk =   0.0078125
        k(   34) = (  -0.3125000   0.3125000   0.0625000), wk =   0.0234375
        k(   35) = (  -0.4375000   0.4375000  -0.0625000), wk =   0.0234375
        k(   36) = (   0.4375000  -0.4375000   0.8125000), wk =   0.0234375
        k(   37) = (   0.3125000  -0.3125000   0.6875000), wk =   0.0234375
        k(   38) = (   0.1875000  -0.1875000   0.5625000), wk =   0.0234375
        k(   39) = (  -0.1875000   0.4375000   0.1875000), wk =   0.0234375
        k(   40) = (  -0.3125000   0.5625000   0.0625000), wk =   0.0468750
        k(   41) = (   0.5625000  -0.3125000   0.9375000), wk =   0.0468750
        k(   42) = (   0.4375000  -0.1875000   0.8125000), wk =   0.0468750
        k(   43) = (   0.3125000  -0.0625000   0.6875000), wk =   0.0468750
        k(   44) = (  -0.1875000   0.6875000   0.1875000), wk =   0.0234375
        k(   45) = (   0.6875000  -0.1875000   1.0625000), wk =   0.0468750
        k(   46) = (   0.5625000  -0.0625000   0.9375000), wk =   0.0468750
        k(   47) = (   0.4375000   0.0625000   0.8125000), wk =   0.0468750
        k(   48) = (  -0.1875000  -1.0625000   0.1875000), wk =   0.0234375
        k(   49) = (  -0.3125000  -0.9375000   0.0625000), wk =   0.0468750
        k(   50) = (  -0.1875000  -0.8125000   0.1875000), wk =   0.0234375
        k(   51) = (  -0.3125000   0.3125000   0.3125000), wk =   0.0078125
        k(   52) = (  -0.4375000   0.4375000   0.1875000), wk =   0.0234375
        k(   53) = (   0.4375000  -0.4375000   1.0625000), wk =   0.0234375
        k(   54) = (   0.3125000  -0.3125000   0.9375000), wk =   0.0234375
        k(   55) = (  -0.3125000   0.5625000   0.3125000), wk =   0.0234375
        k(   56) = (   0.5625000  -0.3125000   1.1875000), wk =   0.0468750
        k(   57) = (   0.4375000  -0.1875000   1.0625000), wk =   0.0468750
        k(   58) = (  -0.3125000  -1.1875000   0.3125000), wk =   0.0234375
        k(   59) = (  -0.4375000   0.4375000   0.4375000), wk =   0.0078125
        k(   60) = (   0.4375000  -0.4375000   1.3125000), wk =   0.0234375

     Dense  grid:    47447 G-vectors     FFT dimensions: (  54,  54,  54)

     Smooth grid:    16865 G-vectors     FFT dimensions: (  36,  36,  36)

     Estimated max dynamical RAM per process >      15.61MB

     Estimated total allocated dynamical RAM >      62.44MB

     Initial potential from superposition of free atoms

     starting charge   25.99991, renormalised to   28.00000
     Starting wfc are   18 randomized atomic wfcs

     total cpu time spent up to now is        1.0 secs

     per-process dynamical memory:    20.3 Mb

     Self-consistent Calculation

     iteration #  1     ecut=    50.00 Ry     beta=0.70
     Davidson diagonalization with overlap
     ethr =  1.00E-02,  avg # of iterations =  3.0

     total cpu time spent up to now is        2.8 secs

     total energy              =    -317.43235166 Ry
     Harris-Foulkes estimate   =    -319.37923124 Ry
     estimated scf accuracy    <       2.37746452 Ry

     iteration #  2     ecut=    50.00 Ry     beta=0.70
     Davidson diagonalization with overlap
     ethr =  8.49E-03,  avg # of iterations =  3.0

     total cpu time spent up to now is        4.6 secs

     total energy              =    -318.29540329 Ry
     Harris-Foulkes estimate   =    -318.60422498 Ry
     estimated scf accuracy    <       0.46453962 Ry

     iteration #  3     ecut=    50.00 Ry     beta=0.70
     Davidson diagonalization with overlap
     ethr =  1.66E-03,  avg # of iterations =  2.0

     total cpu time spent up to now is        6.2 secs

     total energy              =    -318.38751380 Ry
     Harris-Foulkes estimate   =    -318.38898182 Ry
     estimated scf accuracy    <       0.00270322 Ry

     iteration #  4     ecut=    50.00 Ry     beta=0.70
     Davidson diagonalization with overlap
     ethr =  9.65E-06,  avg # of iterations =  3.1

     total cpu time spent up to now is        7.9 secs

     total energy              =    -318.38839860 Ry
     Harris-Foulkes estimate   =    -318.38851889 Ry
     estimated scf accuracy    <       0.00018046 Ry

     iteration #  5     ecut=    50.00 Ry     beta=0.70
     Davidson diagonalization with overlap
     ethr =  6.45E-07,  avg # of iterations =  2.9

     total cpu time spent up to now is        9.7 secs

     total energy              =    -318.38845255 Ry
     Harris-Foulkes estimate   =    -318.38845333 Ry
     estimated scf accuracy    <       0.00000166 Ry

     iteration #  6     ecut=    50.00 Ry     beta=0.70
     Davidson diagonalization with overlap
     ethr =  5.95E-09,  avg # of iterations =  3.6

     total cpu time spent up to now is       11.5 secs

     total energy              =    -318.38845320 Ry
     Harris-Foulkes estimate   =    -318.38845329 Ry
     estimated scf accuracy    <       0.00000013 Ry

     iteration #  7     ecut=    50.00 Ry     beta=0.70
     Davidson diagonalization with overlap
     ethr =  4.68E-10,  avg # of iterations =  3.0

     total cpu time spent up to now is       13.2 secs

     End of self-consistent calculation

          k =-0.0625 0.0625 0.0625 (  2091 PWs)   bands (ev):

   -10.6690 -10.6690 -10.6598 -10.5442 -10.5442  -9.9460  -9.9460  -9.9394
    -9.8652  -9.8652  -0.8180  11.1758  11.8765  11.8765

          k =-0.1875 0.1875-0.0625 (  2091 PWs)   bands (ev):

   -10.7011 -10.6840 -10.6541 -10.5153 -10.4959  -9.9963  -9.9797  -9.9194
    -9.8667  -9.8277  -0.5530   9.3743  10.7548  11.6784

          k =-0.3125 0.3125-0.1875 (  2093 PWs)   bands (ev):

   -10.7269 -10.7150 -10.6301 -10.4719 -10.4442 -10.0347 -10.0119  -9.9544
    -9.8335  -9.8033   0.0901   6.9662  10.1252  11.0071

          k =-0.4375 0.4375-0.3125 (  2090 PWs)   bands (ev):

   -10.7352 -10.7346 -10.6081 -10.4426 -10.4212 -10.0426 -10.0231 -10.0007
    -9.8073  -9.7972   0.9931   4.9878   9.8333  10.4542

          k = 0.4375-0.4375 0.5625 (  2092 PWs)   bands (ev):

   -10.7428 -10.7318 -10.6029 -10.4268 -10.4252 -10.0410 -10.0268 -10.0132
    -9.8048  -9.7938   1.4420   4.2647   9.8758  10.1787

          k = 0.3125-0.3125 0.4375 (  2087 PWs)   bands (ev):

   -10.7389 -10.7218 -10.6185 -10.4485 -10.4246 -10.0604 -10.0037  -9.9845
    -9.8202  -9.7945   0.6833   5.5683  10.2280  10.2321

          k = 0.1875-0.1875 0.3125 (  2087 PWs)   bands (ev):

   -10.7201 -10.7030 -10.6425 -10.4859 -10.4556 -10.0452  -9.9734  -9.9492
    -9.8436  -9.8115  -0.1627   7.7442  10.6172  10.8243

          k = 0.0625-0.0625 0.1875 (  2087 PWs)   bands (ev):

   -10.6862 -10.6752 -10.6624 -10.5331 -10.5096  -9.9991  -9.9353  -9.9274
    -9.8747  -9.8401  -0.6850  10.2306  11.2674  11.4463

          k =-0.0625 0.3125 0.0625 (  2084 PWs)   bands (ev):

   -10.7023 -10.6874 -10.6700 -10.5098 -10.4556 -10.0706  -9.9285  -9.9055
    -9.8812  -9.8243  -0.4197   9.1930  10.5463  10.6219

          k =-0.1875 0.4375-0.0625 (  2087 PWs)   bands (ev):

   -10.7328 -10.7139 -10.6428 -10.4690 -10.3948 -10.1352  -9.9715  -9.9172
    -9.8469  -9.7995   0.1011   7.5538   9.3839  10.2910

          k =-0.3125 0.5625-0.1875 (  2097 PWs)   bands (ev):

   -10.7648 -10.7351 -10.5928 -10.4258 -10.3621 -10.1575 -10.0168  -9.9833
    -9.8063  -9.7682   0.9448   5.5987   8.8123   9.7842

          k = 0.5625-0.3125 0.6875 (  2094 PWs)   bands (ev):

   -10.7790 -10.7461 -10.5566 -10.3940 -10.3725 -10.1287 -10.0645 -10.0250
    -9.7852  -9.7536   1.7060   4.3528   8.4930   9.6611

          k = 0.4375-0.1875 0.5625 (  2094 PWs)   bands (ev):

   -10.7696 -10.7486 -10.5614 -10.4232 -10.3663 -10.1228 -10.0415 -10.0267
    -9.7831  -9.7657   1.2486   5.0620   8.4228  10.0019

          k = 0.3125-0.0625 0.4375 (  2091 PWs)   bands (ev):

   -10.7440 -10.7333 -10.6053 -10.4612 -10.3937 -10.1105 -10.0124  -9.9541
    -9.8217  -9.7840   0.3484   6.8644   8.7755  10.6357

          k = 0.1875 0.0625 0.3125 (  2086 PWs)   bands (ev):

   -10.7176 -10.6969 -10.6487 -10.4973 -10.4535 -10.0584  -9.9717  -9.9096
    -9.8680  -9.8108  -0.2902   8.4632  10.0509  11.1271

          k =-0.0625 0.5625 0.0625 (  2083 PWs)   bands (ev):

   -10.7315 -10.7217 -10.6634 -10.4276 -10.3167 -10.2360  -9.9973  -9.8785
    -9.8301  -9.8119   0.4992   6.9955   9.1939   9.3178

          k =-0.1875 0.6875-0.0625 (  2092 PWs)   bands (ev):

   -10.7623 -10.7463 -10.6055 -10.3739 -10.2989 -10.2555 -10.0546  -9.9474
    -9.7903  -9.7709   1.2505   5.6799   8.3341   8.9186

          k = 0.6875-0.1875 0.8125 (  2105 PWs)   bands (ev):

   -10.7984 -10.7586 -10.5330 -10.3248 -10.2982 -10.2455 -10.1185 -10.0273
    -9.7684  -9.7283   2.1482   4.4388   7.4811   8.8737

          k = 0.5625-0.0625 0.6875 (  2105 PWs)   bands (ev):

   -10.8044 -10.7641 -10.5094 -10.3427 -10.2870 -10.2139 -10.1484 -10.0487
    -9.7596  -9.7240   2.0740   4.5392   7.1247   9.2725

          k = 0.4375 0.0625 0.5625 (  2093 PWs)   bands (ev):

   -10.7762 -10.7574 -10.5447 -10.4207 -10.3373 -10.1539 -10.0602 -10.0275
    -9.7691  -9.7616   1.1808   5.5416   7.7476   9.9600

          k = 0.3125 0.1875 0.4375 (  2094 PWs)   bands (ev):

   -10.7436 -10.7247 -10.6137 -10.4564 -10.4088 -10.0901 -10.0048  -9.9656
    -9.8237  -9.7881   0.4625   6.2464   9.4899  10.5001

          k =-0.0625 0.8125 0.0625 (  2103 PWs)   bands (ev):

   -10.7575 -10.7502 -10.5983 -10.4033 -10.3101 -10.1632 -10.1126  -9.9559
    -9.7784  -9.7711   1.9077   4.7813   8.3779   8.5852

          k = 0.8125-0.0625 0.9375 (  2103 PWs)   bands (ev):

   -10.7798 -10.7638 -10.5196 -10.4449 -10.2478 -10.1799 -10.1170 -10.0410
    -9.7587  -9.7438   2.8251   3.7550   7.8258   8.3431

          k = 0.6875 0.0625 0.8125 (  2106 PWs)   bands (ev):

   -10.8060 -10.7649 -10.5056 -10.3369 -10.2652 -10.2143 -10.1765 -10.0525
    -9.7577  -9.7185   2.7165   3.9277   7.1256   8.7075

          k = 0.5625 0.1875 0.6875 (  2097 PWs)   bands (ev):

   -10.7955 -10.7570 -10.5280 -10.3639 -10.3294 -10.1772 -10.1090 -10.0385
    -9.7697  -9.7342   1.9587   4.3818   7.6850   9.3996

          k = 0.4375 0.3125 0.5625 (  2095 PWs)   bands (ev):

   -10.7571 -10.7371 -10.5855 -10.4256 -10.4019 -10.0794 -10.0273 -10.0184
    -9.7988  -9.7783   1.3557   4.5649   9.2689  10.0716

          k =-0.0625-0.9375 0.0625 (  2094 PWs)   bands (ev):

   -10.7635 -10.7562 -10.5451 -10.4777 -10.2445 -10.1777 -10.0880 -10.0164
    -9.7659  -9.7595   2.7765   3.7416   8.2141   8.4350

          k =-0.1875-0.8125-0.0625 (  2098 PWs)   bands (ev):

   -10.7735 -10.7578 -10.5676 -10.3762 -10.3129 -10.1844 -10.1149  -9.9884
    -9.7700  -9.7538   1.9925   4.7094   7.9996   8.5308

          k =-0.3125-0.6875-0.1875 (  2097 PWs)   bands (ev):

   -10.7841 -10.7474 -10.5655 -10.3797 -10.3125 -10.2219 -10.0615 -10.0004
    -9.7860  -9.7463   1.5191   5.0066   8.0994   9.2225

          k =-0.0625-0.6875 0.0625 (  2093 PWs)   bands (ev):

   -10.7461 -10.7381 -10.6382 -10.3720 -10.3214 -10.2403 -10.0514  -9.9071
    -9.8010  -9.7909   1.1453   5.8755   8.7048   8.8820

          k =-0.1875-0.5625-0.0625 (  2089 PWs)   bands (ev):

   -10.7480 -10.7312 -10.6303 -10.4269 -10.3280 -10.2163 -10.0036  -9.9252
    -9.8172  -9.7879   0.6168   6.6314   8.8038   9.5162

          k =-0.0625-0.4375 0.0625 (  2078 PWs)   bands (ev):

   -10.7164 -10.7038 -10.6731 -10.4742 -10.3896 -10.1509  -9.9534  -9.8820
    -9.8609  -9.8202  -0.0240   8.1100   9.8403   9.8799

          k =-0.1875 0.1875 0.1875 (  2094 PWs)   bands (ev):

   -10.7007 -10.7007 -10.6469 -10.4947 -10.4947  -9.9856  -9.9856  -9.9586
    -9.8350  -9.8350  -0.4224   8.5834  11.2240  11.2240

          k =-0.3125 0.3125 0.0625 (  2089 PWs)   bands (ev):

   -10.7312 -10.7141 -10.6256 -10.4811 -10.4352 -10.0508 -10.0207  -9.9231
    -9.8499  -9.7958  -0.0329   7.6532   9.3925  11.2250

          k =-0.4375 0.4375-0.0625 (  2097 PWs)   bands (ev):

   -10.7561 -10.7506 -10.5707 -10.4493 -10.3744 -10.1006 -10.0562  -9.9910
    -9.7918  -9.7750   0.7119   6.1829   8.2077  10.5561

          k = 0.4375-0.4375 0.8125 (  2100 PWs)   bands (ev):

   -10.7832 -10.7526 -10.5421 -10.4004 -10.3558 -10.1097 -10.1035 -10.0336
    -9.7742  -9.7513   1.6064   4.6404   8.0254   9.8921

          k = 0.3125-0.3125 0.6875 (  2094 PWs)   bands (ev):

   -10.7839 -10.7421 -10.5654 -10.3827 -10.3515 -10.1732 -10.0617 -10.0064
    -9.7912  -9.7469   1.6227   4.6089   8.3424   9.5149

          k = 0.1875-0.1875 0.5625 (  2091 PWs)   bands (ev):

   -10.7592 -10.7251 -10.6197 -10.4259 -10.3442 -10.1931 -10.0080  -9.9420
    -9.8212  -9.7751   0.7285   6.1776   9.0108   9.5097

          k =-0.1875 0.4375 0.1875 (  2087 PWs)   bands (ev):

   -10.7401 -10.7116 -10.6351 -10.4637 -10.4037 -10.1175  -9.9776  -9.9385
    -9.8405  -9.7935   0.2229   6.9447   9.9323  10.0239

          k =-0.3125 0.5625 0.0625 (  2093 PWs)   bands (ev):

   -10.7602 -10.7486 -10.5852 -10.4268 -10.3391 -10.1847 -10.0155  -9.9874
    -9.7928  -9.7721   0.8473   6.1008   8.2575   9.7893

          k = 0.5625-0.3125 0.9375 (  2100 PWs)   bands (ev):

   -10.7916 -10.7674 -10.5188 -10.3759 -10.2891 -10.2231 -10.0933 -10.0462
    -9.7587  -9.7394   1.7375   4.9363   7.4306   9.1467

          k = 0.4375-0.1875 0.8125 (  2099 PWs)   bands (ev):

   -10.8011 -10.7678 -10.5059 -10.3410 -10.2828 -10.2394 -10.1252 -10.0530
    -9.7581  -9.7258   2.2244   4.3078   7.4295   8.7954

          k = 0.3125-0.0625 0.6875 (  2095 PWs)   bands (ev):

   -10.7765 -10.7612 -10.5586 -10.3779 -10.2808 -10.2568 -10.0620 -10.0055
    -9.7704  -9.7548   1.4534   5.3402   7.8631   8.9968

          k =-0.1875 0.6875 0.1875 (  2101 PWs)   bands (ev):

   -10.7765 -10.7399 -10.5935 -10.3754 -10.2917 -10.2574 -10.0565  -9.9639
    -9.7968  -9.7552   1.3445   5.4075   8.2220   9.1055

          k = 0.6875-0.1875 1.0625 (  2105 PWs)   bands (ev):

   -10.7885 -10.7721 -10.5218 -10.3350 -10.3189 -10.2130 -10.1222 -10.0361
    -9.7543  -9.7383   2.1498   4.5592   7.6044   8.4040

          k = 0.5625-0.0625 0.9375 (  2121 PWs)   bands (ev):

   -10.8025 -10.7891 -10.4418 -10.3560 -10.2692 -10.2036 -10.1768 -10.1043
    -9.7349  -9.7215   2.9590   3.7752   7.2933   7.8958

          k = 0.4375 0.0625 0.8125 (  2105 PWs)   bands (ev):

   -10.8002 -10.7793 -10.4836 -10.3258 -10.2928 -10.2325 -10.1441 -10.0698
    -9.7456  -9.7258   2.3527   4.3462   7.2813   8.3987

          k =-0.1875-1.0625 0.1875 (  2107 PWs)   bands (ev):

   -10.7959 -10.7583 -10.5229 -10.3967 -10.2526 -10.1783 -10.1624 -10.0384
    -9.7639  -9.7281   2.7995   3.8078   7.3816   8.6871

          k =-0.3125-0.9375 0.0625 (  2113 PWs)   bands (ev):

   -10.7946 -10.7785 -10.4783 -10.3965 -10.2562 -10.1871 -10.1553 -10.0775
    -9.7449  -9.7294   2.9002   3.7694   7.4814   8.0876

          k =-0.1875-0.8125 0.1875 (  2107 PWs)   bands (ev):

   -10.7893 -10.7516 -10.5583 -10.3441 -10.3157 -10.2125 -10.1156 -10.0005
    -9.7756  -9.7380   2.0530   4.6048   7.6639   8.8281

          k =-0.3125 0.3125 0.3125 (  2096 PWs)   bands (ev):

   -10.7219 -10.7219 -10.6309 -10.4528 -10.4528 -10.0132 -10.0132  -9.9859
    -9.8149  -9.8149   0.3319   6.2267  10.6452  10.6452

          k =-0.4375 0.4375 0.1875 (  2094 PWs)   bands (ev):

   -10.7475 -10.7443 -10.5865 -10.4473 -10.3955 -10.0755 -10.0415  -9.9944
    -9.7987  -9.7833   0.8104   5.6058   8.9521  10.5258

          k = 0.4375-0.4375 1.0625 (  2096 PWs)   bands (ev):

   -10.7933 -10.7591 -10.5238 -10.3899 -10.3197 -10.1411 -10.1348 -10.0389
    -9.7644  -9.7397   1.5994   5.0141   7.3538   9.8217

          k = 0.3125-0.3125 0.9375 (  2103 PWs)   bands (ev):

   -10.8096 -10.7602 -10.5146 -10.2868 -10.2774 -10.2604 -10.1674 -10.0446
    -9.7621  -9.7164   2.4193   4.1940   7.0079   9.1672

          k =-0.3125 0.5625 0.3125 (  2096 PWs)   bands (ev):

   -10.7621 -10.7296 -10.5951 -10.4248 -10.3900 -10.1171 -10.0207  -9.9899
    -9.8107  -9.7712   1.1257   5.0242   9.3096   9.8398

          k = 0.5625-0.3125 1.1875 (  2092 PWs)   bands (ev):

   -10.7884 -10.7571 -10.5355 -10.3838 -10.3273 -10.1829 -10.0779 -10.0363
    -9.7718  -9.7422   1.7426   4.6281   7.9112   9.3189

          k = 0.4375-0.1875 1.0625 (  2110 PWs)   bands (ev):

   -10.8073 -10.7751 -10.4818 -10.3077 -10.2826 -10.2378 -10.1707 -10.0702
    -9.7486  -9.7180   2.5583   4.1175   7.1007   8.5386

          k =-0.3125-1.1875 0.3125 (  2101 PWs)   bands (ev):

   -10.8006 -10.7535 -10.5354 -10.3295 -10.3155 -10.2236 -10.1151 -10.0283
    -9.7729  -9.7274   2.1002   4.3310   7.5141   9.2855

          k =-0.4375 0.4375 0.4375 (  2084 PWs)   bands (ev):

   -10.7294 -10.7294 -10.6183 -10.4348 -10.4348 -10.0213 -10.0213 -10.0052
    -9.8077  -9.8077   1.2248   4.5097  10.3342  10.3342

          k = 0.4375-0.4375 1.3125 (  2097 PWs)   bands (ev):

   -10.7646 -10.7413 -10.5724 -10.4134 -10.3975 -10.0737 -10.0588 -10.0242
    -9.7902  -9.7718   1.5728   4.3193   8.9558  10.0197

     highest occupied level (ev):    11.8765

!    total energy              =    -318.38845324 Ry
     Harris-Foulkes estimate   =    -318.38845325 Ry
     estimated scf accuracy    <          8.1E-10 Ry

     The total energy is the sum of the following terms:

     one-electron contribution =    -128.92274900 Ry
     hartree contribution      =      85.42611441 Ry
     xc contribution           =     -86.35388711 Ry
     ewald contribution        =    -188.53793154 Ry

     convergence has been achieved in   7 iterations

     Writing output data file sn.alpha.11.2.save

     init_run     :      0.87s CPU      0.91s WALL (       1 calls)
     electrons    :     11.81s CPU     12.26s WALL (       1 calls)

     Called by init_run:
     wfcinit      :      0.50s CPU      0.52s WALL (       1 calls)
     potinit      :      0.05s CPU      0.05s WALL (       1 calls)

     Called by electrons:
     c_bands      :      9.47s CPU      9.80s WALL (       7 calls)
     sum_band     :      1.72s CPU      1.81s WALL (       7 calls)
     v_of_rho     :      0.27s CPU      0.27s WALL (       8 calls)
     newd         :      0.38s CPU      0.39s WALL (       8 calls)
     mix_rho      :      0.02s CPU      0.02s WALL (       7 calls)

     Called by c_bands:
     init_us_2    :      0.25s CPU      0.26s WALL (     900 calls)
     cegterg      :      8.97s CPU      9.30s WALL (     420 calls)

     Called by sum_band:
     sum_band:bec :      0.00s CPU      0.00s WALL (     420 calls)
     addusdens    :      0.40s CPU      0.43s WALL (       7 calls)

     Called by *egterg:
     h_psi        :      7.45s CPU      7.76s WALL (    1715 calls)
     s_psi        :      0.17s CPU      0.17s WALL (    1715 calls)
     g_psi        :      0.05s CPU      0.06s WALL (    1235 calls)
     cdiaghg      :      0.72s CPU      0.72s WALL (    1655 calls)

     Called by h_psi:
     h_psi:pot    :      7.39s CPU      7.68s WALL (    1715 calls)
     h_psi:calbec :      0.33s CPU      0.33s WALL (    1715 calls)
     vloc_psi     :      6.86s CPU      7.13s WALL (    1715 calls)
     add_vuspsi   :      0.20s CPU      0.21s WALL (    1715 calls)

     General routines
     calbec       :      0.41s CPU      0.42s WALL (    2135 calls)
     fft          :      0.11s CPU      0.12s WALL (     124 calls)
     ffts         :      0.01s CPU      0.01s WALL (      15 calls)
     fftw         :      6.43s CPU      6.64s WALL (   45730 calls)
     interpolate  :      0.03s CPU      0.03s WALL (      15 calls)
     davcio       :      0.00s CPU      0.00s WALL (      60 calls)

     Parallel routines
     fft_scatter  :      1.07s CPU      1.20s WALL (   45869 calls)

     PWSCF        :    12.82s CPU        14.34s WALL


   This run was terminated on:  15:31:24  11Nov2017            

=------------------------------------------------------------------------------=
   JOB DONE.
=------------------------------------------------------------------------------=
