
     Program PWSCF v.6.1 (svn rev. 13369) starts on 12Nov2017 at 12:59:37 

     This program is part of the open-source Quantum ESPRESSO suite
     for quantum simulation of materials; please cite
         "P. Giannozzi et al., J. Phys.:Condens. Matter 21 395502 (2009);
          URL http://www.quantum-espresso.org", 
     in publications or presentations arising from this work. More details at
     http://www.quantum-espresso.org/quote

     Parallel version (MPI), running on     4 processors
     R & G space division:  proc/nbgrp/npool/nimage =       4
     Waiting for input...
     Reading input from standard input
     Message from routine read_cards :
     DEPRECATED: no units specified in ATOMIC_POSITIONS card
     Message from routine read_cards :
     ATOMIC_POSITIONS: units set to alat

     Current dimensions of program PWSCF are:
     Max number of different atomic species (ntypx) = 10
     Max number of k-points (npk) =  40000
     Max angular momentum in pseudopotentials (lmaxx) =  3

     Subspace diagonalization in iterative solution of the eigenvalue problem:
     a serial algorithm will be used


     Parallelization info
     --------------------
     sticks:   dense  smooth     PW     G-vecs:    dense   smooth      PW
     Min         498     250     77                14721     5205     881
     Max         499     251     79                14724     5208     882
     Sum        1993    1003    313                58887    20827    3527



     bravais-lattice index     =            2
     lattice parameter (alat)  =      12.5650  a.u.
     unit-cell volume          =     495.9381 (a.u.)^3
     number of atoms/cell      =            2
     number of atomic types    =            1
     number of electrons       =        28.00
     number of Kohn-Sham states=           14
     kinetic-energy cutoff     =      46.0000  Ry
     charge density cutoff     =     368.0000  Ry
     convergence threshold     =      1.0E-08
     mixing beta               =       0.7000
     number of iterations used =            8  plain     mixing
     Exchange-correlation      =  SLA  PW   PBX  PBC ( 1  4  3  4 0 0)

     celldm(1)=  12.565000  celldm(2)=   0.000000  celldm(3)=   0.000000
     celldm(4)=   0.000000  celldm(5)=   0.000000  celldm(6)=   0.000000

     crystal axes: (cart. coord. in units of alat)
               a(1) = (  -0.500000   0.000000   0.500000 )  
               a(2) = (   0.000000   0.500000   0.500000 )  
               a(3) = (  -0.500000   0.500000   0.000000 )  

     reciprocal axes: (cart. coord. in units 2 pi/alat)
               b(1) = ( -1.000000 -1.000000  1.000000 )  
               b(2) = (  1.000000  1.000000  1.000000 )  
               b(3) = ( -1.000000  1.000000 -1.000000 )  


     PseudoPot. # 1 for Sn read from file:
     /home/s1333534/quantum_espresso/qe-6.1/pseudo/sn_pbe_v1.4.uspp.F.UPF
     MD5 check sum: 469debedee59599fedebd795477fea03
     Pseudo is Ultrasoft + core correction, Zval = 14.0
     Generated by new atomic code, or converted to UPF format
     Using radial grid of  891 points,  6 beta functions with: 
                l(1) =   0
                l(2) =   0
                l(3) =   1
                l(4) =   1
                l(5) =   2
                l(6) =   2
     Q(r) pseudized with  8 coefficients,  rinner =    1.350   1.350   1.350
                                                       1.350   1.350

     atomic species   valence    mass     pseudopotential
        Sn            14.00   118.71000     Sn( 1.00)

     48 Sym. Ops., with inversion, found (24 have fractional translation)



   Cartesian axes

     site n.     atom                  positions (alat units)
         1           Sn  tau(   1) = (   0.0000000   0.0000000   0.0000000  )
         2           Sn  tau(   2) = (   0.2500000   0.2500000   0.2500000  )

     number of k points=    60
                       cart. coord. in units 2pi/alat
        k(    1) = (  -0.0625000   0.0625000   0.0625000), wk =   0.0078125
        k(    2) = (  -0.1875000   0.1875000  -0.0625000), wk =   0.0234375
        k(    3) = (  -0.3125000   0.3125000  -0.1875000), wk =   0.0234375
        k(    4) = (  -0.4375000   0.4375000  -0.3125000), wk =   0.0234375
        k(    5) = (   0.4375000  -0.4375000   0.5625000), wk =   0.0234375
        k(    6) = (   0.3125000  -0.3125000   0.4375000), wk =   0.0234375
        k(    7) = (   0.1875000  -0.1875000   0.3125000), wk =   0.0234375
        k(    8) = (   0.0625000  -0.0625000   0.1875000), wk =   0.0234375
        k(    9) = (  -0.0625000   0.3125000   0.0625000), wk =   0.0234375
        k(   10) = (  -0.1875000   0.4375000  -0.0625000), wk =   0.0468750
        k(   11) = (  -0.3125000   0.5625000  -0.1875000), wk =   0.0468750
        k(   12) = (   0.5625000  -0.3125000   0.6875000), wk =   0.0468750
        k(   13) = (   0.4375000  -0.1875000   0.5625000), wk =   0.0468750
        k(   14) = (   0.3125000  -0.0625000   0.4375000), wk =   0.0468750
        k(   15) = (   0.1875000   0.0625000   0.3125000), wk =   0.0468750
        k(   16) = (  -0.0625000   0.5625000   0.0625000), wk =   0.0234375
        k(   17) = (  -0.1875000   0.6875000  -0.0625000), wk =   0.0468750
        k(   18) = (   0.6875000  -0.1875000   0.8125000), wk =   0.0468750
        k(   19) = (   0.5625000  -0.0625000   0.6875000), wk =   0.0468750
        k(   20) = (   0.4375000   0.0625000   0.5625000), wk =   0.0468750
        k(   21) = (   0.3125000   0.1875000   0.4375000), wk =   0.0468750
        k(   22) = (  -0.0625000   0.8125000   0.0625000), wk =   0.0234375
        k(   23) = (   0.8125000  -0.0625000   0.9375000), wk =   0.0468750
        k(   24) = (   0.6875000   0.0625000   0.8125000), wk =   0.0468750
        k(   25) = (   0.5625000   0.1875000   0.6875000), wk =   0.0468750
        k(   26) = (   0.4375000   0.3125000   0.5625000), wk =   0.0468750
        k(   27) = (  -0.0625000  -0.9375000   0.0625000), wk =   0.0234375
        k(   28) = (  -0.1875000  -0.8125000  -0.0625000), wk =   0.0468750
        k(   29) = (  -0.3125000  -0.6875000  -0.1875000), wk =   0.0468750
        k(   30) = (  -0.0625000  -0.6875000   0.0625000), wk =   0.0234375
        k(   31) = (  -0.1875000  -0.5625000  -0.0625000), wk =   0.0468750
        k(   32) = (  -0.0625000  -0.4375000   0.0625000), wk =   0.0234375
        k(   33) = (  -0.1875000   0.1875000   0.1875000), wk =   0.0078125
        k(   34) = (  -0.3125000   0.3125000   0.0625000), wk =   0.0234375
        k(   35) = (  -0.4375000   0.4375000  -0.0625000), wk =   0.0234375
        k(   36) = (   0.4375000  -0.4375000   0.8125000), wk =   0.0234375
        k(   37) = (   0.3125000  -0.3125000   0.6875000), wk =   0.0234375
        k(   38) = (   0.1875000  -0.1875000   0.5625000), wk =   0.0234375
        k(   39) = (  -0.1875000   0.4375000   0.1875000), wk =   0.0234375
        k(   40) = (  -0.3125000   0.5625000   0.0625000), wk =   0.0468750
        k(   41) = (   0.5625000  -0.3125000   0.9375000), wk =   0.0468750
        k(   42) = (   0.4375000  -0.1875000   0.8125000), wk =   0.0468750
        k(   43) = (   0.3125000  -0.0625000   0.6875000), wk =   0.0468750
        k(   44) = (  -0.1875000   0.6875000   0.1875000), wk =   0.0234375
        k(   45) = (   0.6875000  -0.1875000   1.0625000), wk =   0.0468750
        k(   46) = (   0.5625000  -0.0625000   0.9375000), wk =   0.0468750
        k(   47) = (   0.4375000   0.0625000   0.8125000), wk =   0.0468750
        k(   48) = (  -0.1875000  -1.0625000   0.1875000), wk =   0.0234375
        k(   49) = (  -0.3125000  -0.9375000   0.0625000), wk =   0.0468750
        k(   50) = (  -0.1875000  -0.8125000   0.1875000), wk =   0.0234375
        k(   51) = (  -0.3125000   0.3125000   0.3125000), wk =   0.0078125
        k(   52) = (  -0.4375000   0.4375000   0.1875000), wk =   0.0234375
        k(   53) = (   0.4375000  -0.4375000   1.0625000), wk =   0.0234375
        k(   54) = (   0.3125000  -0.3125000   0.9375000), wk =   0.0234375
        k(   55) = (  -0.3125000   0.5625000   0.3125000), wk =   0.0234375
        k(   56) = (   0.5625000  -0.3125000   1.1875000), wk =   0.0468750
        k(   57) = (   0.4375000  -0.1875000   1.0625000), wk =   0.0468750
        k(   58) = (  -0.3125000  -1.1875000   0.3125000), wk =   0.0234375
        k(   59) = (  -0.4375000   0.4375000   0.4375000), wk =   0.0078125
        k(   60) = (   0.4375000  -0.4375000   1.3125000), wk =   0.0234375

     Dense  grid:    58887 G-vectors     FFT dimensions: (  60,  60,  60)

     Smooth grid:    20827 G-vectors     FFT dimensions: (  40,  40,  40)

     Estimated max dynamical RAM per process >      19.62MB

     Estimated total allocated dynamical RAM >      78.48MB

     Check: negative/imaginary core charge=   -0.000001    0.000000

     Initial potential from superposition of free atoms

     starting charge   25.99991, renormalised to   28.00000
     Starting wfc are   18 randomized atomic wfcs

     total cpu time spent up to now is        1.3 secs

     per-process dynamical memory:    24.0 Mb

     Self-consistent Calculation

     iteration #  1     ecut=    46.00 Ry     beta=0.70
     Davidson diagonalization with overlap
     ethr =  1.00E-02,  avg # of iterations =  2.5

     total cpu time spent up to now is        3.7 secs

     total energy              =    -317.47783490 Ry
     Harris-Foulkes estimate   =    -319.54131861 Ry
     estimated scf accuracy    <       2.51414635 Ry

     iteration #  2     ecut=    46.00 Ry     beta=0.70
     Davidson diagonalization with overlap
     ethr =  8.98E-03,  avg # of iterations =  3.0

     total cpu time spent up to now is        6.4 secs

     total energy              =    -318.38654021 Ry
     Harris-Foulkes estimate   =    -318.70506756 Ry
     estimated scf accuracy    <       0.47432679 Ry

     iteration #  3     ecut=    46.00 Ry     beta=0.70
     Davidson diagonalization with overlap
     ethr =  1.69E-03,  avg # of iterations =  2.0

     total cpu time spent up to now is        8.8 secs

     total energy              =    -318.48171737 Ry
     Harris-Foulkes estimate   =    -318.48329223 Ry
     estimated scf accuracy    <       0.00288919 Ry

     iteration #  4     ecut=    46.00 Ry     beta=0.70
     Davidson diagonalization with overlap
     ethr =  1.03E-05,  avg # of iterations =  3.0

     total cpu time spent up to now is       11.3 secs

     total energy              =    -318.48260626 Ry
     Harris-Foulkes estimate   =    -318.48272425 Ry
     estimated scf accuracy    <       0.00017461 Ry

     iteration #  5     ecut=    46.00 Ry     beta=0.70
     Davidson diagonalization with overlap
     ethr =  6.24E-07,  avg # of iterations =  3.0

     total cpu time spent up to now is       13.8 secs

     total energy              =    -318.48266003 Ry
     Harris-Foulkes estimate   =    -318.48266076 Ry
     estimated scf accuracy    <       0.00000150 Ry

     iteration #  6     ecut=    46.00 Ry     beta=0.70
     Davidson diagonalization with overlap
     ethr =  5.34E-09,  avg # of iterations =  4.1

     total cpu time spent up to now is       16.5 secs

     total energy              =    -318.48266081 Ry
     Harris-Foulkes estimate   =    -318.48266086 Ry
     estimated scf accuracy    <       0.00000007 Ry

     iteration #  7     ecut=    46.00 Ry     beta=0.70
     Davidson diagonalization with overlap
     ethr =  2.60E-10,  avg # of iterations =  3.2

     total cpu time spent up to now is       19.1 secs

     End of self-consistent calculation

          k =-0.0625 0.0625 0.0625 (  2661 PWs)   bands (ev):

   -14.6102 -14.6102 -14.6067 -14.5554 -14.5554 -14.3149 -14.3149 -14.3060
   -14.2937 -14.2937  -3.1491   5.4044   6.9671   6.9671

          k =-0.1875 0.1875-0.0625 (  2641 PWs)   bands (ev):

   -14.6219 -14.6169 -14.6031 -14.5443 -14.5373 -14.3377 -14.3284 -14.3027
   -14.2879 -14.2757  -2.9638   4.2337   6.2870   6.8296

          k =-0.3125 0.3125-0.1875 (  2618 PWs)   bands (ev):

   -14.6331 -14.6298 -14.5919 -14.5261 -14.5161 -14.3555 -14.3440 -14.3183
   -14.2703 -14.2630  -2.5234   2.6658   5.7938   6.4071

          k =-0.4375 0.4375-0.3125 (  2602 PWs)   bands (ev):

   -14.6382 -14.6377 -14.5813 -14.5129 -14.5053 -14.3627 -14.3534 -14.3331
   -14.2593 -14.2578  -1.9424   1.3646   5.5479   6.0483

          k = 0.4375-0.4375 0.5625 (  2601 PWs)   bands (ev):

   -14.6412 -14.6372 -14.5786 -14.5065 -14.5058 -14.3616 -14.3592 -14.3362
   -14.2591 -14.2549  -1.6850   0.9208   5.5475   5.8748

          k = 0.3125-0.3125 0.4375 (  2614 PWs)   bands (ev):

   -14.6391 -14.6331 -14.5859 -14.5161 -14.5072 -14.3649 -14.3497 -14.3265
   -14.2646 -14.2574  -2.1344   1.7399   5.7770   5.9244

          k = 0.1875-0.1875 0.3125 (  2618 PWs)   bands (ev):

   -14.6301 -14.6247 -14.5974 -14.5322 -14.5209 -14.3555 -14.3345 -14.3119
   -14.2757 -14.2669  -2.6944   3.1816   6.1938   6.1946

          k = 0.0625-0.0625 0.1875 (  2655 PWs)   bands (ev):

   -14.6161 -14.6133 -14.6072 -14.5511 -14.5427 -14.3361 -14.3150 -14.3021
   -14.2931 -14.2822  -3.0557   4.7471   6.6217   6.6546

          k =-0.0625 0.3125 0.0625 (  2628 PWs)   bands (ev):

   -14.6225 -14.6189 -14.6086 -14.5419 -14.5215 -14.3626 -14.3206 -14.2945
   -14.2868 -14.2751  -2.8698   3.9445   6.1516   6.1669

          k =-0.1875 0.4375-0.0625 (  2619 PWs)   bands (ev):

   -14.6353 -14.6301 -14.5959 -14.5255 -14.4979 -14.3873 -14.3371 -14.3051
   -14.2721 -14.2616  -2.5092   2.8379   5.3803   5.9289

          k =-0.3125 0.5625-0.1875 (  2612 PWs)   bands (ev):

   -14.6493 -14.6385 -14.5738 -14.5077 -14.4839 -14.3979 -14.3556 -14.3306
   -14.2587 -14.2467  -1.9477   1.5976   4.8729   5.6288

          k = 0.5625-0.3125 0.6875 (  2612 PWs)   bands (ev):

   -14.6556 -14.6430 -14.5584 -14.4944 -14.4869 -14.3885 -14.3728 -14.3489
   -14.2523 -14.2398  -1.4909   0.8368   4.6114   5.5620

          k = 0.4375-0.1875 0.5625 (  2611 PWs)   bands (ev):

   -14.6519 -14.6431 -14.5617 -14.5056 -14.4855 -14.3875 -14.3599 -14.3498
   -14.2518 -14.2446  -1.7594   1.2631   4.6151   5.7690

          k = 0.3125-0.0625 0.4375 (  2615 PWs)   bands (ev):

   -14.6400 -14.6374 -14.5809 -14.5216 -14.4974 -14.3804 -14.3460 -14.3238
   -14.2629 -14.2556  -2.3436   2.4065   4.9715   6.1566

          k = 0.1875 0.0625 0.3125 (  2624 PWs)   bands (ev):

   -14.6285 -14.6228 -14.5999 -14.5369 -14.5205 -14.3591 -14.3306 -14.3032
   -14.2818 -14.2680  -2.7809   3.5557   5.8259   6.4494

          k =-0.0625 0.5625 0.0625 (  2617 PWs)   bands (ev):

   -14.6367 -14.6341 -14.6003 -14.5104 -14.4676 -14.4247 -14.3492 -14.2943
   -14.2660 -14.2617  -2.2281   2.3005   5.2627   5.3510

          k =-0.1875 0.6875-0.0625 (  2612 PWs)   bands (ev):

   -14.6491 -14.6437 -14.5760 -14.4895 -14.4501 -14.4429 -14.3705 -14.3208
   -14.2522 -14.2465  -1.7143   1.3925   4.6984   5.0895

          k = 0.6875-0.1875 0.8125 (  2612 PWs)   bands (ev):

   -14.6633 -14.6486 -14.5459 -14.4696 -14.4528 -14.4371 -14.3933 -14.3524
   -14.2451 -14.2307  -1.1413   0.5931   4.1219   5.0587

          k = 0.5625-0.0625 0.6875 (  2611 PWs)   bands (ev):

   -14.6659 -14.6499 -14.5374 -14.4747 -14.4562 -14.4201 -14.4009 -14.3620
   -14.2434 -14.2285  -1.2054   0.6747   3.9091   5.3116

          k = 0.4375 0.0625 0.5625 (  2612 PWs)   bands (ev):

   -14.6549 -14.6462 -14.5548 -14.5048 -14.4756 -14.3985 -14.3613 -14.3557
   -14.2479 -14.2421  -1.7877   1.4307   4.2889   5.7454

          k = 0.3125 0.1875 0.4375 (  2614 PWs)   bands (ev):

   -14.6403 -14.6340 -14.5840 -14.5196 -14.5023 -14.3737 -14.3465 -14.3239
   -14.2650 -14.2560  -2.2721   2.1266   5.3375   6.0631

          k =-0.0625 0.8125 0.0625 (  2604 PWs)   bands (ev):

   -14.6487 -14.6462 -14.5697 -14.4897 -14.4660 -14.4071 -14.3921 -14.3264
   -14.2471 -14.2448  -1.2503   0.7382   4.7310   4.8565

          k = 0.8125-0.0625 0.9375 (  2601 PWs)   bands (ev):

   -14.6569 -14.6514 -14.5378 -14.5077 -14.4422 -14.4168 -14.3882 -14.3588
   -14.2409 -14.2356  -0.6311   0.0202   4.3889   4.7080

          k = 0.6875 0.0625 0.8125 (  2608 PWs)   bands (ev):

   -14.6663 -14.6513 -14.5333 -14.4670 -14.4479 -14.4253 -14.4145 -14.3633
   -14.2415 -14.2268  -0.7629   0.1846   3.9462   4.9464

          k = 0.5625 0.1875 0.6875 (  2609 PWs)   bands (ev):

   -14.6623 -14.6472 -14.5455 -14.4827 -14.4713 -14.4060 -14.3882 -14.3569
   -14.2469 -14.2323  -1.3072   0.7171   4.1691   5.3953

          k = 0.4375 0.3125 0.5625 (  2604 PWs)   bands (ev):

   -14.6467 -14.6391 -14.5714 -14.5063 -14.4978 -14.3726 -14.3594 -14.3412
   -14.2568 -14.2494  -1.7169   1.0548   5.1168   5.8094

          k =-0.0625-0.9375 0.0625 (  2608 PWs)   bands (ev):

   -14.6516 -14.6491 -14.5471 -14.5197 -14.4415 -14.4165 -14.3776 -14.3501
   -14.2431 -14.2409  -0.6496   0.0182   4.6224   4.7549

          k =-0.1875-0.8125-0.0625 (  2609 PWs)   bands (ev):

   -14.6542 -14.6487 -14.5588 -14.4800 -14.4666 -14.4151 -14.3927 -14.3378
   -14.2449 -14.2395  -1.2031   0.6895   4.4933   4.8360

          k =-0.3125-0.6875-0.1875 (  2611 PWs)   bands (ev):

   -14.6573 -14.6437 -14.5609 -14.4903 -14.4638 -14.4228 -14.3723 -14.3399
   -14.2514 -14.2377  -1.5627   1.0846   4.4475   5.2857

          k =-0.0625-0.6875 0.0625 (  2610 PWs)   bands (ev):

   -14.6435 -14.6410 -14.5876 -14.4894 -14.4576 -14.4373 -14.3693 -14.3074
   -14.2552 -14.2525  -1.7788   1.5029   4.9461   5.0570

          k =-0.1875-0.5625-0.0625 (  2609 PWs)   bands (ev):

   -14.6424 -14.6372 -14.5883 -14.5094 -14.4717 -14.4178 -14.3512 -14.3097
   -14.2614 -14.2545  -2.1520   2.1126   4.9977   5.4602

          k =-0.0625-0.4375 0.0625 (  2624 PWs)   bands (ev):

   -14.6294 -14.6261 -14.6072 -14.5283 -14.4961 -14.3928 -14.3327 -14.2899
   -14.2769 -14.2699  -2.5931   3.1192   5.6711   5.7277

          k =-0.1875 0.1875 0.1875 (  2632 PWs)   bands (ev):

   -14.6227 -14.6227 -14.6005 -14.5362 -14.5362 -14.3354 -14.3354 -14.3122
   -14.2762 -14.2762  -2.8736   3.7837   6.5700   6.5700

          k =-0.3125 0.3125 0.0625 (  2622 PWs)   bands (ev):

   -14.6340 -14.6299 -14.5902 -14.5301 -14.5134 -14.3600 -14.3437 -14.3130
   -14.2736 -14.2614  -2.6045   3.0038   5.3873   6.5384

          k =-0.4375 0.4375-0.0625 (  2616 PWs)   bands (ev):

   -14.6467 -14.6428 -14.5666 -14.5161 -14.4900 -14.3811 -14.3545 -14.3426
   -14.2522 -14.2515  -2.1007   1.9231   4.5896   6.1198

          k = 0.4375-0.4375 0.8125 (  2604 PWs)   bands (ev):

   -14.6575 -14.6448 -14.5527 -14.4966 -14.4815 -14.3851 -14.3786 -14.3553
   -14.2491 -14.2384  -1.5361   0.9599   4.3631   5.6985

          k = 0.3125-0.3125 0.6875 (  2612 PWs)   bands (ev):

   -14.6574 -14.6418 -14.5610 -14.4913 -14.4783 -14.4049 -14.3723 -14.3421
   -14.2537 -14.2378  -1.5217   0.9372   4.5420   5.4615

          k = 0.1875-0.1875 0.5625 (  2616 PWs)   bands (ev):

   -14.6468 -14.6354 -14.5839 -14.5086 -14.4774 -14.4099 -14.3527 -14.3160
   -14.2635 -14.2497  -2.0823   1.9103   5.0280   5.4708

          k =-0.1875 0.4375 0.1875 (  2617 PWs)   bands (ev):

   -14.6383 -14.6291 -14.5927 -14.5233 -14.5008 -14.3817 -14.3400 -14.3115
   -14.2712 -14.2585  -2.4291   2.5477   5.5847   5.8107

          k =-0.3125 0.5625 0.0625 (  2608 PWs)   bands (ev):

   -14.6478 -14.6429 -14.5710 -14.5083 -14.4760 -14.4073 -14.3547 -14.3321
   -14.2535 -14.2487  -2.0030   1.8000   4.6284   5.6317

          k = 0.5625-0.3125 0.9375 (  2616 PWs)   bands (ev):

   -14.6610 -14.6505 -14.5429 -14.4879 -14.4567 -14.4237 -14.3806 -14.3594
   -14.2434 -14.2341  -1.4155   0.9433   4.0960   5.2427

          k = 0.4375-0.1875 0.8125 (  2609 PWs)   bands (ev):

   -14.6645 -14.6514 -14.5361 -14.4742 -14.4528 -14.4303 -14.3947 -14.3627
   -14.2422 -14.2294  -1.1135   0.5500   4.0580   5.0284

          k = 0.3125-0.0625 0.6875 (  2616 PWs)   bands (ev):

   -14.6549 -14.6484 -14.5586 -14.4900 -14.4523 -14.4358 -14.3727 -14.3415
   -14.2464 -14.2405  -1.5901   1.1942   4.3795   5.1485

          k =-0.1875 0.6875 0.1875 (  2607 PWs)   bands (ev):

   -14.6542 -14.6413 -14.5712 -14.4894 -14.4539 -14.4373 -14.3709 -14.3267
   -14.2542 -14.2411  -1.6611   1.2752   4.5807   5.2009

          k = 0.6875-0.1875 1.0625 (  2615 PWs)   bands (ev):

   -14.6597 -14.6534 -14.5419 -14.4684 -14.4645 -14.4265 -14.3947 -14.3555
   -14.2403 -14.2341  -1.1155   0.5950   4.2327   4.7771

          k = 0.5625-0.0625 0.9375 (  2610 PWs)   bands (ev):

   -14.6650 -14.6596 -14.5096 -14.4750 -14.4475 -14.4226 -14.4129 -14.3838
   -14.2333 -14.2280  -0.5837   0.0228   4.0601   4.4571

          k = 0.4375 0.0625 0.8125 (  2609 PWs)   bands (ev):

   -14.6643 -14.6555 -14.5272 -14.4684 -14.4507 -14.4345 -14.4007 -14.3696
   -14.2378 -14.2294  -1.0005   0.4656   4.0241   4.7793

          k =-0.1875-1.0625 0.1875 (  2610 PWs)   bands (ev):

   -14.6628 -14.6495 -14.5389 -14.4897 -14.4440 -14.4160 -14.4050 -14.3580
   -14.2431 -14.2302  -0.6772   0.0786   4.1130   4.9202

          k =-0.3125-0.9375 0.0625 (  2606 PWs)   bands (ev):

   -14.6621 -14.6562 -14.5228 -14.4899 -14.4442 -14.4185 -14.4033 -14.3727
   -14.2365 -14.2307  -0.6039   0.0221   4.1779   4.5650

          k =-0.1875-0.8125 0.1875 (  2608 PWs)   bands (ev):

   -14.6597 -14.6466 -14.5550 -14.4682 -14.4672 -14.4255 -14.3928 -14.3424
   -14.2469 -14.2340  -1.1783   0.6508   4.2708   5.0149

          k =-0.3125 0.3125 0.3125 (  2611 PWs)   bands (ev):

   -14.6322 -14.6322 -14.5915 -14.5183 -14.5183 -14.3503 -14.3503 -14.3228
   -14.2650 -14.2650  -2.3644   2.2045   6.1845   6.1845

          k =-0.4375 0.4375 0.1875 (  2612 PWs)   bands (ev):

   -14.6433 -14.6408 -14.5728 -14.5151 -14.4969 -14.3730 -14.3527 -14.3395
   -14.2552 -14.2542  -2.0449   1.6835   4.9709   6.0974

          k = 0.4375-0.4375 1.0625 (  2616 PWs)   bands (ev):

   -14.6616 -14.6475 -14.5451 -14.4930 -14.4691 -14.3981 -14.3870 -14.3592
   -14.2461 -14.2342  -1.5167   1.0483   4.0386   5.6550

          k = 0.3125-0.3125 0.9375 (  2602 PWs)   bands (ev):

   -14.6678 -14.6492 -14.5375 -14.4530 -14.4518 -14.4380 -14.4103 -14.3601
   -14.2436 -14.2257  -0.9793   0.4148   3.8535   5.2332

          k =-0.3125 0.5625 0.3125 (  2611 PWs)   bands (ev):

   -14.6484 -14.6368 -14.5750 -14.5068 -14.4935 -14.3841 -14.3572 -14.3325
   -14.2604 -14.2476  -1.8461   1.3132   5.1294   5.6728

          k = 0.5625-0.3125 1.1875 (  2614 PWs)   bands (ev):

   -14.6596 -14.6471 -14.5495 -14.4906 -14.4703 -14.4089 -14.3769 -14.3545
   -14.2474 -14.2356  -1.4362   0.8811   4.3025   5.3544

          k = 0.4375-0.1875 1.0625 (  2607 PWs)   bands (ev):

   -14.6669 -14.6544 -14.5256 -14.4603 -14.4477 -14.4363 -14.4108 -14.3704
   -14.2387 -14.2264  -0.8764   0.3209   3.9184   4.8576

          k =-0.3125-1.1875 0.3125 (  2609 PWs)   bands (ev):

   -14.6641 -14.6465 -14.5470 -14.4718 -14.4636 -14.4238 -14.3918 -14.3526
   -14.2473 -14.2300  -1.2037   0.6224   4.0961   5.3111

          k =-0.4375 0.4375 0.4375 (  2596 PWs)   bands (ev):

   -14.6362 -14.6362 -14.5850 -14.5096 -14.5096 -14.3567 -14.3567 -14.3305
   -14.2599 -14.2599  -1.8128   1.0886   5.9712   5.9712

          k = 0.4375-0.4375 1.3125 (  2600 PWs)   bands (ev):

   -14.6498 -14.6408 -14.5655 -14.5013 -14.4962 -14.3701 -14.3688 -14.3468
   -14.2541 -14.2460  -1.5888   0.8870   4.9079   5.7771

     highest occupied level (ev):     6.9671

!    total energy              =    -318.48266084 Ry
     Harris-Foulkes estimate   =    -318.48266084 Ry
     estimated scf accuracy    <          2.5E-09 Ry

     The total energy is the sum of the following terms:

     one-electron contribution =    -161.98818225 Ry
     hartree contribution      =      97.52695323 Ry
     xc contribution           =     -85.96533685 Ry
     ewald contribution        =    -168.05609497 Ry

     convergence has been achieved in   7 iterations


     Computing stress (Cartesian axis) and pressure

          total   stress  (Ry/bohr**3)                   (kbar)     P=  -15.78
  -0.00010729  -0.00000000   0.00000000        -15.78     -0.00      0.00
  -0.00000000  -0.00010729   0.00000000         -0.00    -15.78      0.00
   0.00000000   0.00000000  -0.00010729          0.00      0.00    -15.78


     Writing output data file sn.alpha.46.save

     init_run     :      1.18s CPU      1.22s WALL (       1 calls)
     electrons    :     17.28s CPU     17.85s WALL (       1 calls)
     stress       :      0.88s CPU      0.90s WALL (       1 calls)

     Called by init_run:
     wfcinit      :      0.74s CPU      0.77s WALL (       1 calls)
     potinit      :      0.06s CPU      0.06s WALL (       1 calls)

     Called by electrons:
     c_bands      :     13.82s CPU     14.15s WALL (       7 calls)
     sum_band     :      2.69s CPU      2.82s WALL (       7 calls)
     v_of_rho     :      0.36s CPU      0.37s WALL (       8 calls)
     newd         :      0.47s CPU      0.53s WALL (       8 calls)
     mix_rho      :      0.03s CPU      0.03s WALL (       7 calls)

     Called by c_bands:
     init_us_2    :      0.35s CPU      0.35s WALL (     960 calls)
     cegterg      :     13.19s CPU     13.52s WALL (     420 calls)

     Called by sum_band:
     sum_band:bec :      0.00s CPU      0.00s WALL (     420 calls)
     addusdens    :      0.48s CPU      0.56s WALL (       7 calls)

     Called by *egterg:
     h_psi        :     11.51s CPU     11.84s WALL (    1727 calls)
     s_psi        :      0.21s CPU      0.21s WALL (    1727 calls)
     g_psi        :      0.07s CPU      0.07s WALL (    1247 calls)
     cdiaghg      :      0.73s CPU      0.73s WALL (    1667 calls)

     Called by h_psi:
     h_psi:pot    :     11.40s CPU     11.72s WALL (    1727 calls)
     h_psi:calbec :      0.45s CPU      0.45s WALL (    1727 calls)
     vloc_psi     :     10.67s CPU     10.99s WALL (    1727 calls)
     add_vuspsi   :      0.28s CPU      0.28s WALL (    1727 calls)

     General routines
     calbec       :      0.58s CPU      0.58s WALL (    2207 calls)
     fft          :      0.19s CPU      0.20s WALL (     138 calls)
     ffts         :      0.01s CPU      0.01s WALL (      15 calls)
     fftw         :      9.91s CPU     10.19s WALL (   45564 calls)
     interpolate  :      0.03s CPU      0.04s WALL (      15 calls)
     davcio       :      0.00s CPU      0.00s WALL (      60 calls)

     Parallel routines
     fft_scatter  :      1.89s CPU      1.86s WALL (   45717 calls)

     PWSCF        :    19.49s CPU        21.22s WALL


   This run was terminated on:  12:59:58  12Nov2017            

=------------------------------------------------------------------------------=
   JOB DONE.
=------------------------------------------------------------------------------=
