
     Program PWSCF v.6.1 (svn rev. 13369) starts on 12Nov2017 at 12:59: 9 

     This program is part of the open-source Quantum ESPRESSO suite
     for quantum simulation of materials; please cite
         "P. Giannozzi et al., J. Phys.:Condens. Matter 21 395502 (2009);
          URL http://www.quantum-espresso.org", 
     in publications or presentations arising from this work. More details at
     http://www.quantum-espresso.org/quote

     Parallel version (MPI), running on     4 processors
     R & G space division:  proc/nbgrp/npool/nimage =       4
     Waiting for input...
     Reading input from standard input
     Message from routine read_cards :
     DEPRECATED: no units specified in ATOMIC_POSITIONS card
     Message from routine read_cards :
     ATOMIC_POSITIONS: units set to alat

     Current dimensions of program PWSCF are:
     Max number of different atomic species (ntypx) = 10
     Max number of k-points (npk) =  40000
     Max angular momentum in pseudopotentials (lmaxx) =  3

     Subspace diagonalization in iterative solution of the eigenvalue problem:
     a serial algorithm will be used


     Parallelization info
     --------------------
     sticks:   dense  smooth     PW     G-vecs:    dense   smooth      PW
     Min         370     186     60                 9363     3330     599
     Max         371     187     61                 9366     3333     600
     Sum        1483     745    241                37461    13323    2397



     bravais-lattice index     =            2
     lattice parameter (alat)  =      12.5650  a.u.
     unit-cell volume          =     495.9381 (a.u.)^3
     number of atoms/cell      =            2
     number of atomic types    =            1
     number of electrons       =        28.00
     number of Kohn-Sham states=           14
     kinetic-energy cutoff     =      34.0000  Ry
     charge density cutoff     =     272.0000  Ry
     convergence threshold     =      1.0E-08
     mixing beta               =       0.7000
     number of iterations used =            8  plain     mixing
     Exchange-correlation      =  SLA  PW   PBX  PBC ( 1  4  3  4 0 0)

     celldm(1)=  12.565000  celldm(2)=   0.000000  celldm(3)=   0.000000
     celldm(4)=   0.000000  celldm(5)=   0.000000  celldm(6)=   0.000000

     crystal axes: (cart. coord. in units of alat)
               a(1) = (  -0.500000   0.000000   0.500000 )  
               a(2) = (   0.000000   0.500000   0.500000 )  
               a(3) = (  -0.500000   0.500000   0.000000 )  

     reciprocal axes: (cart. coord. in units 2 pi/alat)
               b(1) = ( -1.000000 -1.000000  1.000000 )  
               b(2) = (  1.000000  1.000000  1.000000 )  
               b(3) = ( -1.000000  1.000000 -1.000000 )  


     PseudoPot. # 1 for Sn read from file:
     /home/s1333534/quantum_espresso/qe-6.1/pseudo/sn_pbe_v1.4.uspp.F.UPF
     MD5 check sum: 469debedee59599fedebd795477fea03
     Pseudo is Ultrasoft + core correction, Zval = 14.0
     Generated by new atomic code, or converted to UPF format
     Using radial grid of  891 points,  6 beta functions with: 
                l(1) =   0
                l(2) =   0
                l(3) =   1
                l(4) =   1
                l(5) =   2
                l(6) =   2
     Q(r) pseudized with  8 coefficients,  rinner =    1.350   1.350   1.350
                                                       1.350   1.350

     atomic species   valence    mass     pseudopotential
        Sn            14.00   118.71000     Sn( 1.00)

     48 Sym. Ops., with inversion, found (24 have fractional translation)



   Cartesian axes

     site n.     atom                  positions (alat units)
         1           Sn  tau(   1) = (   0.0000000   0.0000000   0.0000000  )
         2           Sn  tau(   2) = (   0.2500000   0.2500000   0.2500000  )

     number of k points=    60
                       cart. coord. in units 2pi/alat
        k(    1) = (  -0.0625000   0.0625000   0.0625000), wk =   0.0078125
        k(    2) = (  -0.1875000   0.1875000  -0.0625000), wk =   0.0234375
        k(    3) = (  -0.3125000   0.3125000  -0.1875000), wk =   0.0234375
        k(    4) = (  -0.4375000   0.4375000  -0.3125000), wk =   0.0234375
        k(    5) = (   0.4375000  -0.4375000   0.5625000), wk =   0.0234375
        k(    6) = (   0.3125000  -0.3125000   0.4375000), wk =   0.0234375
        k(    7) = (   0.1875000  -0.1875000   0.3125000), wk =   0.0234375
        k(    8) = (   0.0625000  -0.0625000   0.1875000), wk =   0.0234375
        k(    9) = (  -0.0625000   0.3125000   0.0625000), wk =   0.0234375
        k(   10) = (  -0.1875000   0.4375000  -0.0625000), wk =   0.0468750
        k(   11) = (  -0.3125000   0.5625000  -0.1875000), wk =   0.0468750
        k(   12) = (   0.5625000  -0.3125000   0.6875000), wk =   0.0468750
        k(   13) = (   0.4375000  -0.1875000   0.5625000), wk =   0.0468750
        k(   14) = (   0.3125000  -0.0625000   0.4375000), wk =   0.0468750
        k(   15) = (   0.1875000   0.0625000   0.3125000), wk =   0.0468750
        k(   16) = (  -0.0625000   0.5625000   0.0625000), wk =   0.0234375
        k(   17) = (  -0.1875000   0.6875000  -0.0625000), wk =   0.0468750
        k(   18) = (   0.6875000  -0.1875000   0.8125000), wk =   0.0468750
        k(   19) = (   0.5625000  -0.0625000   0.6875000), wk =   0.0468750
        k(   20) = (   0.4375000   0.0625000   0.5625000), wk =   0.0468750
        k(   21) = (   0.3125000   0.1875000   0.4375000), wk =   0.0468750
        k(   22) = (  -0.0625000   0.8125000   0.0625000), wk =   0.0234375
        k(   23) = (   0.8125000  -0.0625000   0.9375000), wk =   0.0468750
        k(   24) = (   0.6875000   0.0625000   0.8125000), wk =   0.0468750
        k(   25) = (   0.5625000   0.1875000   0.6875000), wk =   0.0468750
        k(   26) = (   0.4375000   0.3125000   0.5625000), wk =   0.0468750
        k(   27) = (  -0.0625000  -0.9375000   0.0625000), wk =   0.0234375
        k(   28) = (  -0.1875000  -0.8125000  -0.0625000), wk =   0.0468750
        k(   29) = (  -0.3125000  -0.6875000  -0.1875000), wk =   0.0468750
        k(   30) = (  -0.0625000  -0.6875000   0.0625000), wk =   0.0234375
        k(   31) = (  -0.1875000  -0.5625000  -0.0625000), wk =   0.0468750
        k(   32) = (  -0.0625000  -0.4375000   0.0625000), wk =   0.0234375
        k(   33) = (  -0.1875000   0.1875000   0.1875000), wk =   0.0078125
        k(   34) = (  -0.3125000   0.3125000   0.0625000), wk =   0.0234375
        k(   35) = (  -0.4375000   0.4375000  -0.0625000), wk =   0.0234375
        k(   36) = (   0.4375000  -0.4375000   0.8125000), wk =   0.0234375
        k(   37) = (   0.3125000  -0.3125000   0.6875000), wk =   0.0234375
        k(   38) = (   0.1875000  -0.1875000   0.5625000), wk =   0.0234375
        k(   39) = (  -0.1875000   0.4375000   0.1875000), wk =   0.0234375
        k(   40) = (  -0.3125000   0.5625000   0.0625000), wk =   0.0468750
        k(   41) = (   0.5625000  -0.3125000   0.9375000), wk =   0.0468750
        k(   42) = (   0.4375000  -0.1875000   0.8125000), wk =   0.0468750
        k(   43) = (   0.3125000  -0.0625000   0.6875000), wk =   0.0468750
        k(   44) = (  -0.1875000   0.6875000   0.1875000), wk =   0.0234375
        k(   45) = (   0.6875000  -0.1875000   1.0625000), wk =   0.0468750
        k(   46) = (   0.5625000  -0.0625000   0.9375000), wk =   0.0468750
        k(   47) = (   0.4375000   0.0625000   0.8125000), wk =   0.0468750
        k(   48) = (  -0.1875000  -1.0625000   0.1875000), wk =   0.0234375
        k(   49) = (  -0.3125000  -0.9375000   0.0625000), wk =   0.0468750
        k(   50) = (  -0.1875000  -0.8125000   0.1875000), wk =   0.0234375
        k(   51) = (  -0.3125000   0.3125000   0.3125000), wk =   0.0078125
        k(   52) = (  -0.4375000   0.4375000   0.1875000), wk =   0.0234375
        k(   53) = (   0.4375000  -0.4375000   1.0625000), wk =   0.0234375
        k(   54) = (   0.3125000  -0.3125000   0.9375000), wk =   0.0234375
        k(   55) = (  -0.3125000   0.5625000   0.3125000), wk =   0.0234375
        k(   56) = (   0.5625000  -0.3125000   1.1875000), wk =   0.0468750
        k(   57) = (   0.4375000  -0.1875000   1.0625000), wk =   0.0468750
        k(   58) = (  -0.3125000  -1.1875000   0.3125000), wk =   0.0234375
        k(   59) = (  -0.4375000   0.4375000   0.4375000), wk =   0.0078125
        k(   60) = (   0.4375000  -0.4375000   1.3125000), wk =   0.0234375

     Dense  grid:    37461 G-vectors     FFT dimensions: (  48,  48,  48)

     Smooth grid:    13323 G-vectors     FFT dimensions: (  36,  36,  36)

     Estimated max dynamical RAM per process >      12.05MB

     Estimated total allocated dynamical RAM >      48.20MB

     Check: negative/imaginary core charge=   -0.000003    0.000000

     Initial potential from superposition of free atoms

     starting charge   25.99991, renormalised to   28.00000
     Starting wfc are   18 randomized atomic wfcs

     total cpu time spent up to now is        0.8 secs

     per-process dynamical memory:    17.3 Mb

     Self-consistent Calculation

     iteration #  1     ecut=    34.00 Ry     beta=0.70
     Davidson diagonalization with overlap
     ethr =  1.00E-02,  avg # of iterations =  2.6

     total cpu time spent up to now is        2.3 secs

     total energy              =    -317.46458129 Ry
     Harris-Foulkes estimate   =    -319.52852427 Ry
     estimated scf accuracy    <       2.51506269 Ry

     iteration #  2     ecut=    34.00 Ry     beta=0.70
     Davidson diagonalization with overlap
     ethr =  8.98E-03,  avg # of iterations =  3.0

     total cpu time spent up to now is        3.9 secs

     total energy              =    -318.37367960 Ry
     Harris-Foulkes estimate   =    -318.69333896 Ry
     estimated scf accuracy    <       0.47607039 Ry

     iteration #  3     ecut=    34.00 Ry     beta=0.70
     Davidson diagonalization with overlap
     ethr =  1.70E-03,  avg # of iterations =  2.0

     total cpu time spent up to now is        5.4 secs

     total energy              =    -318.46905841 Ry
     Harris-Foulkes estimate   =    -318.47064197 Ry
     estimated scf accuracy    <       0.00289630 Ry

     iteration #  4     ecut=    34.00 Ry     beta=0.70
     Davidson diagonalization with overlap
     ethr =  1.03E-05,  avg # of iterations =  3.1

     total cpu time spent up to now is        6.9 secs

     total energy              =    -318.46993654 Ry
     Harris-Foulkes estimate   =    -318.47006040 Ry
     estimated scf accuracy    <       0.00017992 Ry

     iteration #  5     ecut=    34.00 Ry     beta=0.70
     Davidson diagonalization with overlap
     ethr =  6.43E-07,  avg # of iterations =  3.0

     total cpu time spent up to now is        8.4 secs

     total energy              =    -318.46999291 Ry
     Harris-Foulkes estimate   =    -318.46999435 Ry
     estimated scf accuracy    <       0.00000245 Ry

     iteration #  6     ecut=    34.00 Ry     beta=0.70
     Davidson diagonalization with overlap
     ethr =  8.73E-09,  avg # of iterations =  3.7

     total cpu time spent up to now is       10.1 secs

     total energy              =    -318.46999400 Ry
     Harris-Foulkes estimate   =    -318.46999402 Ry
     estimated scf accuracy    <       0.00000004 Ry

     iteration #  7     ecut=    34.00 Ry     beta=0.70
     Davidson diagonalization with overlap
     ethr =  1.40E-10,  avg # of iterations =  3.4

     total cpu time spent up to now is       11.7 secs

     End of self-consistent calculation

          k =-0.0625 0.0625 0.0625 (  1663 PWs)   bands (ev):

   -14.5995 -14.5995 -14.5961 -14.5447 -14.5447 -14.3041 -14.3041 -14.2940
   -14.2826 -14.2826  -3.1499   5.4026   6.9671   6.9671

          k =-0.1875 0.1875-0.0625 (  1669 PWs)   bands (ev):

   -14.6116 -14.6065 -14.5932 -14.5340 -14.5268 -14.3276 -14.3183 -14.2925
   -14.2772 -14.2647  -2.9646   4.2324   6.2870   6.8296

          k =-0.3125 0.3125-0.1875 (  1652 PWs)   bands (ev):

   -14.6227 -14.6199 -14.5818 -14.5153 -14.5056 -14.3448 -14.3336 -14.3081
   -14.2602 -14.2522  -2.5243   2.6649   5.7937   6.4070

          k =-0.4375 0.4375-0.3125 (  1657 PWs)   bands (ev):

   -14.6290 -14.6278 -14.5710 -14.5027 -14.4950 -14.3531 -14.3433 -14.3234
   -14.2503 -14.2482  -1.9433   1.3638   5.5478   6.0482

          k = 0.4375-0.4375 0.5625 (  1666 PWs)   bands (ev):

   -14.6326 -14.6288 -14.5695 -14.4960 -14.4953 -14.3518 -14.3497 -14.3272
   -14.2497 -14.2457  -1.6860   0.9201   5.5474   5.8747

          k = 0.3125-0.3125 0.4375 (  1655 PWs)   bands (ev):

   -14.6292 -14.6240 -14.5751 -14.5055 -14.4966 -14.3551 -14.3390 -14.3166
   -14.2557 -14.2471  -2.1353   1.7391   5.7769   5.9243

          k = 0.1875-0.1875 0.3125 (  1656 PWs)   bands (ev):

   -14.6199 -14.6143 -14.5872 -14.5221 -14.5103 -14.3450 -14.3244 -14.3018
   -14.2655 -14.2562  -2.6953   3.1805   6.1937   6.1945

          k = 0.0625-0.0625 0.1875 (  1678 PWs)   bands (ev):

   -14.6061 -14.6035 -14.5975 -14.5405 -14.5328 -14.3259 -14.3050 -14.2914
   -14.2827 -14.2716  -3.0566   4.7456   6.6217   6.6546

          k =-0.0625 0.3125 0.0625 (  1662 PWs)   bands (ev):

   -14.6122 -14.6087 -14.5983 -14.5318 -14.5110 -14.3517 -14.3110 -14.2840
   -14.2765 -14.2645  -2.8707   3.9432   6.1515   6.1668

          k =-0.1875 0.4375-0.0625 (  1657 PWs)   bands (ev):

   -14.6250 -14.6200 -14.5860 -14.5155 -14.4872 -14.3772 -14.3274 -14.2950
   -14.2620 -14.2512  -2.5101   2.8368   5.3804   5.9288

          k =-0.3125 0.5625-0.1875 (  1654 PWs)   bands (ev):

   -14.6390 -14.6292 -14.5634 -14.4974 -14.4736 -14.3876 -14.3455 -14.3206
   -14.2490 -14.2370  -1.9486   1.5967   4.8729   5.6288

          k = 0.5625-0.3125 0.6875 (  1663 PWs)   bands (ev):

   -14.6461 -14.6337 -14.5489 -14.4845 -14.4768 -14.3786 -14.3627 -14.3395
   -14.2425 -14.2306  -1.4919   0.8360   4.6114   5.5620

          k = 0.4375-0.1875 0.5625 (  1659 PWs)   bands (ev):

   -14.6423 -14.6334 -14.5513 -14.4957 -14.4757 -14.3775 -14.3500 -14.3402
   -14.2422 -14.2350  -1.7603   1.2622   4.6151   5.7689

          k = 0.3125-0.0625 0.4375 (  1661 PWs)   bands (ev):

   -14.6301 -14.6276 -14.5716 -14.5119 -14.4869 -14.3701 -14.3364 -14.3138
   -14.2536 -14.2451  -2.3445   2.4054   4.9716   6.1565

          k = 0.1875 0.0625 0.3125 (  1659 PWs)   bands (ev):

   -14.6180 -14.6122 -14.5899 -14.5267 -14.5099 -14.3489 -14.3204 -14.2931
   -14.2716 -14.2571  -2.7818   3.5545   5.8260   6.4493

          k =-0.0625 0.5625 0.0625 (  1667 PWs)   bands (ev):

   -14.6273 -14.6248 -14.5912 -14.5010 -14.4583 -14.4147 -14.3399 -14.2840
   -14.2562 -14.2524  -2.2290   2.2994   5.2627   5.3509

          k =-0.1875 0.6875-0.0625 (  1662 PWs)   bands (ev):

   -14.6397 -14.6346 -14.5667 -14.4802 -14.4400 -14.4334 -14.3610 -14.3106
   -14.2428 -14.2368  -1.7152   1.3915   4.6985   5.0894

          k = 0.6875-0.1875 0.8125 (  1660 PWs)   bands (ev):

   -14.6543 -14.6392 -14.5362 -14.4599 -14.4427 -14.4276 -14.3836 -14.3426
   -14.2360 -14.2207  -1.1422   0.5921   4.1220   5.0586

          k = 0.5625-0.0625 0.6875 (  1660 PWs)   bands (ev):

   -14.6564 -14.6398 -14.5271 -14.4657 -14.4473 -14.4098 -14.3908 -14.3523
   -14.2342 -14.2190  -1.2064   0.6737   3.9093   5.3115

          k = 0.4375 0.0625 0.5625 (  1658 PWs)   bands (ev):

   -14.6451 -14.6357 -14.5444 -14.4956 -14.4658 -14.3882 -14.3517 -14.3461
   -14.2382 -14.2324  -1.7886   1.4297   4.2890   5.7453

          k = 0.3125 0.1875 0.4375 (  1659 PWs)   bands (ev):

   -14.6305 -14.6244 -14.5744 -14.5093 -14.4918 -14.3636 -14.3365 -14.3141
   -14.2556 -14.2460  -2.2730   2.1257   5.3374   6.0630

          k =-0.0625 0.8125 0.0625 (  1660 PWs)   bands (ev):

   -14.6395 -14.6371 -14.5604 -14.4795 -14.4572 -14.3973 -14.3831 -14.3155
   -14.2382 -14.2357  -1.2512   0.7372   4.7310   4.8564

          k = 0.8125-0.0625 0.9375 (  1662 PWs)   bands (ev):

   -14.6480 -14.6423 -14.5283 -14.4975 -14.4331 -14.4078 -14.3789 -14.3490
   -14.2326 -14.2264  -0.6321   0.0192   4.3890   4.7079

          k = 0.6875 0.0625 0.8125 (  1658 PWs)   bands (ev):

   -14.6577 -14.6418 -14.5235 -14.4566 -14.4389 -14.4159 -14.4048 -14.3530
   -14.2329 -14.2164  -0.7639   0.1836   3.9464   4.9463

          k = 0.5625 0.1875 0.6875 (  1662 PWs)   bands (ev):

   -14.6530 -14.6378 -14.5356 -14.4733 -14.4616 -14.3962 -14.3785 -14.3470
   -14.2373 -14.2228  -1.3082   0.7162   4.1692   5.3952

          k = 0.4375 0.3125 0.5625 (  1654 PWs)   bands (ev):

   -14.6366 -14.6298 -14.5611 -14.4961 -14.4876 -14.3624 -14.3488 -14.3314
   -14.2475 -14.2397  -1.7179   1.0540   5.1167   5.8093

          k =-0.0625-0.9375 0.0625 (  1663 PWs)   bands (ev):

   -14.6426 -14.6398 -14.5375 -14.5097 -14.4321 -14.4071 -14.3680 -14.3397
   -14.2351 -14.2323  -0.6505   0.0172   4.6223   4.7548

          k =-0.1875-0.8125-0.0625 (  1666 PWs)   bands (ev):

   -14.6454 -14.6397 -14.5494 -14.4702 -14.4578 -14.4058 -14.3839 -14.3279
   -14.2359 -14.2305  -1.2040   0.6884   4.4933   4.8359

          k =-0.3125-0.6875-0.1875 (  1653 PWs)   bands (ev):

   -14.6475 -14.6346 -14.5502 -14.4803 -14.4537 -14.4127 -14.3624 -14.3296
   -14.2419 -14.2277  -1.5636   1.0836   4.4476   5.2856

          k =-0.0625-0.6875 0.0625 (  1662 PWs)   bands (ev):

   -14.6345 -14.6320 -14.5785 -14.4800 -14.4477 -14.4276 -14.3600 -14.2966
   -14.2462 -14.2430  -1.7797   1.5019   4.9461   5.0570

          k =-0.1875-0.5625-0.0625 (  1661 PWs)   bands (ev):

   -14.6326 -14.6279 -14.5791 -14.4998 -14.4621 -14.4076 -14.3417 -14.2995
   -14.2518 -14.2448  -2.1529   2.1115   4.9978   5.4602

          k =-0.0625-0.4375 0.0625 (  1656 PWs)   bands (ev):

   -14.6191 -14.6157 -14.5969 -14.5185 -14.4854 -14.3820 -14.3231 -14.2797
   -14.2666 -14.2594  -2.5939   3.1180   5.6711   5.7277

          k =-0.1875 0.1875 0.1875 (  1660 PWs)   bands (ev):

   -14.6125 -14.6125 -14.5894 -14.5257 -14.5257 -14.3250 -14.3250 -14.3017
   -14.2656 -14.2656  -2.8744   3.7826   6.5700   6.5700

          k =-0.3125 0.3125 0.0625 (  1654 PWs)   bands (ev):

   -14.6238 -14.6197 -14.5805 -14.5193 -14.5026 -14.3492 -14.3338 -14.3027
   -14.2633 -14.2501  -2.6054   3.0027   5.3874   6.5384

          k =-0.4375 0.4375-0.0625 (  1656 PWs)   bands (ev):

   -14.6373 -14.6325 -14.5567 -14.5059 -14.4790 -14.3707 -14.3449 -14.3330
   -14.2425 -14.2412  -2.1015   1.9221   4.5897   6.1197

          k = 0.4375-0.4375 0.8125 (  1659 PWs)   bands (ev):

   -14.6479 -14.6350 -14.5427 -14.4871 -14.4717 -14.3749 -14.3691 -14.3455
   -14.2394 -14.2288  -1.5370   0.9590   4.3632   5.6984

          k = 0.3125-0.3125 0.6875 (  1663 PWs)   bands (ev):

   -14.6474 -14.6327 -14.5516 -14.4813 -14.4684 -14.3950 -14.3627 -14.3327
   -14.2441 -14.2285  -1.5227   0.9363   4.5420   5.4614

          k = 0.1875-0.1875 0.5625 (  1657 PWs)   bands (ev):

   -14.6369 -14.6260 -14.5747 -14.4984 -14.4675 -14.3996 -14.3430 -14.3059
   -14.2536 -14.2389  -2.0831   1.9093   5.0280   5.4707

          k =-0.1875 0.4375 0.1875 (  1657 PWs)   bands (ev):

   -14.6278 -14.6194 -14.5832 -14.5129 -14.4901 -14.3714 -14.3302 -14.3013
   -14.2615 -14.2480  -2.4300   2.5467   5.5847   5.8106

          k =-0.3125 0.5625 0.0625 (  1660 PWs)   bands (ev):

   -14.6382 -14.6333 -14.5616 -14.4986 -14.4662 -14.3971 -14.3452 -14.3223
   -14.2439 -14.2387  -2.0039   1.7989   4.6285   5.6316

          k = 0.5625-0.3125 0.9375 (  1656 PWs)   bands (ev):

   -14.6512 -14.6407 -14.5320 -14.4785 -14.4471 -14.4135 -14.3709 -14.3494
   -14.2337 -14.2243  -1.4164   0.9423   4.0961   5.2427

          k = 0.4375-0.1875 0.8125 (  1664 PWs)   bands (ev):

   -14.6555 -14.6422 -14.5259 -14.4645 -14.4436 -14.4209 -14.3851 -14.3533
   -14.2330 -14.2199  -1.1145   0.5491   4.0582   5.0284

          k = 0.3125-0.0625 0.6875 (  1662 PWs)   bands (ev):

   -14.6457 -14.6394 -14.5486 -14.4805 -14.4428 -14.4255 -14.3632 -14.3315
   -14.2369 -14.2309  -1.5910   1.1932   4.3796   5.1485

          k =-0.1875 0.6875 0.1875 (  1658 PWs)   bands (ev):

   -14.6448 -14.6324 -14.5617 -14.4800 -14.4437 -14.4273 -14.3614 -14.3164
   -14.2451 -14.2308  -1.6620   1.2742   4.5808   5.2008

          k = 0.6875-0.1875 1.0625 (  1662 PWs)   bands (ev):

   -14.6506 -14.6443 -14.5317 -14.4588 -14.4547 -14.4170 -14.3853 -14.3461
   -14.2309 -14.2248  -1.1164   0.5940   4.2328   4.7771

          k = 0.5625-0.0625 0.9375 (  1657 PWs)   bands (ev):

   -14.6564 -14.6508 -14.4990 -14.4645 -14.4380 -14.4130 -14.4040 -14.3743
   -14.2233 -14.2174  -0.5847   0.0218   4.0602   4.4572

          k = 0.4375 0.0625 0.8125 (  1661 PWs)   bands (ev):

   -14.6552 -14.6465 -14.5167 -14.4590 -14.4409 -14.4250 -14.3914 -14.3602
   -14.2280 -14.2197  -1.0015   0.4646   4.0243   4.7794

          k =-0.1875-1.0625 0.1875 (  1664 PWs)   bands (ev):

   -14.6541 -14.6401 -14.5300 -14.4797 -14.4352 -14.4069 -14.3953 -14.3479
   -14.2347 -14.2206  -0.6782   0.0776   4.1131   4.9201

          k =-0.3125-0.9375 0.0625 (  1658 PWs)   bands (ev):

   -14.6535 -14.6470 -14.5127 -14.4796 -14.4349 -14.4091 -14.3938 -14.3631
   -14.2273 -14.2208  -0.6049   0.0211   4.1780   4.5650

          k =-0.1875-0.8125 0.1875 (  1662 PWs)   bands (ev):

   -14.6506 -14.6376 -14.5456 -14.4583 -14.4583 -14.4155 -14.3836 -14.3319
   -14.2380 -14.2246  -1.1793   0.6498   4.2709   5.0148

          k =-0.3125 0.3125 0.3125 (  1643 PWs)   bands (ev):

   -14.6216 -14.6216 -14.5813 -14.5074 -14.5074 -14.3394 -14.3394 -14.3131
   -14.2545 -14.2545  -2.3653   2.2037   6.1844   6.1844

          k =-0.4375 0.4375 0.1875 (  1652 PWs)   bands (ev):

   -14.6336 -14.6304 -14.5622 -14.5043 -14.4864 -14.3628 -14.3430 -14.3298
   -14.2454 -14.2441  -2.0457   1.6826   4.9709   6.0973

          k = 0.4375-0.4375 1.0625 (  1656 PWs)   bands (ev):

   -14.6516 -14.6373 -14.5340 -14.4839 -14.4598 -14.3872 -14.3770 -14.3497
   -14.2364 -14.2241  -1.5176   1.0474   4.0388   5.6548

          k = 0.3125-0.3125 0.9375 (  1664 PWs)   bands (ev):

   -14.6591 -14.6399 -14.5283 -14.4441 -14.4425 -14.4287 -14.4003 -14.3501
   -14.2349 -14.2160  -0.9803   0.4138   3.8537   5.2331

          k =-0.3125 0.5625 0.3125 (  1662 PWs)   bands (ev):

   -14.6388 -14.6278 -14.5648 -14.4968 -14.4838 -14.3740 -14.3470 -14.3231
   -14.2512 -14.2379  -1.8470   1.3124   5.1293   5.6727

          k = 0.5625-0.3125 1.1875 (  1659 PWs)   bands (ev):

   -14.6499 -14.6376 -14.5394 -14.4809 -14.4606 -14.3988 -14.3668 -14.3446
   -14.2379 -14.2259  -1.4371   0.8802   4.3026   5.3543

          k = 0.4375-0.1875 1.0625 (  1662 PWs)   bands (ev):

   -14.6581 -14.6454 -14.5149 -14.4509 -14.4379 -14.4276 -14.4012 -14.3609
   -14.2293 -14.2165  -0.8773   0.3199   3.9186   4.8576

          k =-0.3125-1.1875 0.3125 (  1662 PWs)   bands (ev):

   -14.6551 -14.6367 -14.5375 -14.4620 -14.4540 -14.4146 -14.3817 -14.3431
   -14.2380 -14.2202  -1.2047   0.6215   4.0963   5.3110

          k =-0.4375 0.4375 0.4375 (  1673 PWs)   bands (ev):

   -14.6277 -14.6277 -14.5756 -14.4998 -14.4998 -14.3473 -14.3473 -14.3218
   -14.2517 -14.2517  -1.8137   1.0878   5.9711   5.9711

          k = 0.4375-0.4375 1.3125 (  1663 PWs)   bands (ev):

   -14.6405 -14.6314 -14.5566 -14.4917 -14.4859 -14.3600 -14.3583 -14.3377
   -14.2450 -14.2370  -1.5897   0.8863   4.9079   5.7770

     highest occupied level (ev):     6.9671

!    total energy              =    -318.46999402 Ry
     Harris-Foulkes estimate   =    -318.46999402 Ry
     estimated scf accuracy    <          3.9E-09 Ry

     The total energy is the sum of the following terms:

     one-electron contribution =    -161.97444725 Ry
     hartree contribution      =      97.52765192 Ry
     xc contribution           =     -85.96710371 Ry
     ewald contribution        =    -168.05609497 Ry

     convergence has been achieved in   7 iterations


     Computing stress (Cartesian axis) and pressure

          total   stress  (Ry/bohr**3)                   (kbar)     P=  -32.65
  -0.00022194   0.00000000   0.00000000        -32.65      0.00      0.00
   0.00000000  -0.00022194  -0.00000000          0.00    -32.65     -0.00
   0.00000000  -0.00000000  -0.00022194          0.00     -0.00    -32.65


     Writing output data file sn.alpha.34.save

     init_run     :      0.75s CPU      0.78s WALL (       1 calls)
     electrons    :     10.55s CPU     10.89s WALL (       1 calls)
     stress       :      0.55s CPU      0.55s WALL (       1 calls)

     Called by init_run:
     wfcinit      :      0.44s CPU      0.46s WALL (       1 calls)
     potinit      :      0.03s CPU      0.03s WALL (       1 calls)

     Called by electrons:
     c_bands      :      8.55s CPU      8.82s WALL (       7 calls)
     sum_band     :      1.55s CPU      1.59s WALL (       7 calls)
     v_of_rho     :      0.17s CPU      0.17s WALL (       8 calls)
     newd         :      0.32s CPU      0.33s WALL (       8 calls)
     mix_rho      :      0.01s CPU      0.01s WALL (       7 calls)

     Called by c_bands:
     init_us_2    :      0.20s CPU      0.20s WALL (     960 calls)
     cegterg      :      8.15s CPU      8.41s WALL (     420 calls)

     Called by sum_band:
     sum_band:bec :      0.00s CPU      0.00s WALL (     420 calls)
     addusdens    :      0.35s CPU      0.35s WALL (       7 calls)

     Called by *egterg:
     h_psi        :      6.83s CPU      7.08s WALL (    1732 calls)
     s_psi        :      0.13s CPU      0.13s WALL (    1732 calls)
     g_psi        :      0.04s CPU      0.04s WALL (    1252 calls)
     cdiaghg      :      0.74s CPU      0.74s WALL (    1672 calls)

     Called by h_psi:
     h_psi:pot    :      6.79s CPU      7.02s WALL (    1732 calls)
     h_psi:calbec :      0.22s CPU      0.22s WALL (    1732 calls)
     vloc_psi     :      6.42s CPU      6.65s WALL (    1732 calls)
     add_vuspsi   :      0.14s CPU      0.15s WALL (    1732 calls)

     General routines
     calbec       :      0.29s CPU      0.29s WALL (    2212 calls)
     fft          :      0.07s CPU      0.08s WALL (     138 calls)
     ffts         :      0.01s CPU      0.01s WALL (      15 calls)
     fftw         :      6.42s CPU      6.54s WALL (   45910 calls)
     interpolate  :      0.02s CPU      0.02s WALL (      15 calls)
     davcio       :      0.00s CPU      0.00s WALL (      60 calls)

     Parallel routines
     fft_scatter  :      1.00s CPU      1.14s WALL (   46063 calls)

     PWSCF        :    12.00s CPU        13.33s WALL


   This run was terminated on:  12:59:22  12Nov2017            

=------------------------------------------------------------------------------=
   JOB DONE.
=------------------------------------------------------------------------------=
