
     Program PWSCF v.6.1 (svn rev. 13369) starts on 13Nov2017 at 10:28:40 

     This program is part of the open-source Quantum ESPRESSO suite
     for quantum simulation of materials; please cite
         "P. Giannozzi et al., J. Phys.:Condens. Matter 21 395502 (2009);
          URL http://www.quantum-espresso.org", 
     in publications or presentations arising from this work. More details at
     http://www.quantum-espresso.org/quote

     Parallel version (MPI), running on     4 processors
     R & G space division:  proc/nbgrp/npool/nimage =       4
     Waiting for input...
     Reading input from standard input

     Current dimensions of program PWSCF are:
     Max number of different atomic species (ntypx) = 10
     Max number of k-points (npk) =  40000
     Max angular momentum in pseudopotentials (lmaxx) =  3

     Subspace diagonalization in iterative solution of the eigenvalue problem:
     a serial algorithm will be used


     Parallelization info
     --------------------
     sticks:   dense  smooth     PW     G-vecs:    dense   smooth      PW
     Min        1258     504    199                18191     4596    1193
     Max        1259     505    200                18192     4597    1194
     Sum        5033    2017    797                72765    18385    4773



     bravais-lattice index     =            0
     lattice parameter (alat)  =      11.4000  a.u.
     unit-cell volume          =     384.9571 (a.u.)^3
     number of atoms/cell      =            2
     number of atomic types    =            1
     number of electrons       =        28.00
     number of Kohn-Sham states=           18
     kinetic-energy cutoff     =      50.0000  Ry
     charge density cutoff     =     500.0000  Ry
     convergence threshold     =      1.0E-08
     mixing beta               =       0.7000
     number of iterations used =            8  plain     mixing
     Exchange-correlation      =  SLA  PW   PBX  PBC ( 1  4  3  4 0 0)

     celldm(1)=  11.400000  celldm(2)=   0.000000  celldm(3)=   0.000000
     celldm(4)=   0.000000  celldm(5)=   0.000000  celldm(6)=   0.000000

     crystal axes: (cart. coord. in units of alat)
               a(1) = (   0.986837   0.000000   0.000000 )  
               a(2) = (   0.000000   0.986837   0.000000 )  
               a(3) = (   0.493419   0.493419   0.266813 )  

     reciprocal axes: (cart. coord. in units 2 pi/alat)
               b(1) = (  1.013339  0.000000 -1.873974 )  
               b(2) = (  0.000000  1.013339 -1.873974 )  
               b(3) = (  0.000000  0.000000  3.747943 )  


     PseudoPot. # 1 for Sn read from file:
     /home/s1333534/quantum_espresso/qe-6.1/pseudo/sn_pbe_v1.4.uspp.F.UPF
     MD5 check sum: 469debedee59599fedebd795477fea03
     Pseudo is Ultrasoft + core correction, Zval = 14.0
     Generated by new atomic code, or converted to UPF format
     Using radial grid of  891 points,  6 beta functions with: 
                l(1) =   0
                l(2) =   0
                l(3) =   1
                l(4) =   1
                l(5) =   2
                l(6) =   2
     Q(r) pseudized with  8 coefficients,  rinner =    1.350   1.350   1.350
                                                       1.350   1.350

     atomic species   valence    mass     pseudopotential
        Sn            14.00   118.71000     Sn( 1.00)

     No symmetry found



   Cartesian axes

     site n.     atom                  positions (alat units)
         1           Sn  tau(   1) = (   1.0725850   1.3160481   0.0533919  )
         2           Sn  tau(   2) = (   0.5198369   0.2763739   0.0177973  )

     number of k points=   800  Marzari-Vanderbilt smearing, width (Ry)=  0.0200

     Number of k-points >= 100: set verbosity='high' to print them.

     Dense  grid:    72765 G-vectors     FFT dimensions: (  81,  81,  64)

     Smooth grid:    18385 G-vectors     FFT dimensions: (  54,  54,  40)

     Estimated max dynamical RAM per process >     142.42MB

     Estimated total allocated dynamical RAM >     569.67MB

     Initial potential from superposition of free atoms

     starting charge   25.99991, renormalised to   28.00000
     Starting wfc are   18 randomized atomic wfcs

     total cpu time spent up to now is       24.3 secs

     per-process dynamical memory:   157.8 Mb

     Self-consistent Calculation

     iteration #  1     ecut=    50.00 Ry     beta=0.70
     Davidson diagonalization with overlap
     ethr =  1.00E-02,  avg # of iterations =  3.9

     total cpu time spent up to now is      119.3 secs

     total energy              =    -317.49783417 Ry
     Harris-Foulkes estimate   =    -319.48221711 Ry
     estimated scf accuracy    <       2.42928814 Ry

     iteration #  2     ecut=    50.00 Ry     beta=0.70
     Davidson diagonalization with overlap
     ethr =  8.68E-03,  avg # of iterations =  2.6

     total cpu time spent up to now is      202.7 secs

     total energy              =    -318.35734026 Ry
     Harris-Foulkes estimate   =    -318.65989363 Ry
     estimated scf accuracy    <       0.44497361 Ry

     iteration #  3     ecut=    50.00 Ry     beta=0.70
     Davidson diagonalization with overlap
     ethr =  1.59E-03,  avg # of iterations =  2.0

     total cpu time spent up to now is      284.7 secs

     total energy              =    -318.44962817 Ry
     Harris-Foulkes estimate   =    -318.45140071 Ry
     estimated scf accuracy    <       0.00298663 Ry

     iteration #  4     ecut=    50.00 Ry     beta=0.70
     Davidson diagonalization with overlap
     ethr =  1.07E-05,  avg # of iterations =  3.6

     total cpu time spent up to now is      376.2 secs

     total energy              =    -318.45025980 Ry
     Harris-Foulkes estimate   =    -318.45043555 Ry
     estimated scf accuracy    <       0.00034849 Ry

     iteration #  5     ecut=    50.00 Ry     beta=0.70
     Davidson diagonalization with overlap
     ethr =  1.24E-06,  avg # of iterations =  2.6

     total cpu time spent up to now is      467.6 secs

     total energy              =    -318.45031565 Ry
     Harris-Foulkes estimate   =    -318.45032636 Ry
     estimated scf accuracy    <       0.00001845 Ry

     iteration #  6     ecut=    50.00 Ry     beta=0.70
     Davidson diagonalization with overlap
     ethr =  6.59E-08,  avg # of iterations =  3.0

     total cpu time spent up to now is      572.3 secs

     total energy              =    -318.45032288 Ry
     Harris-Foulkes estimate   =    -318.45032331 Ry
     estimated scf accuracy    <       0.00000096 Ry

     iteration #  7     ecut=    50.00 Ry     beta=0.70
     Davidson diagonalization with overlap
     ethr =  3.44E-09,  avg # of iterations =  2.7

     total cpu time spent up to now is      649.7 secs

     total energy              =    -318.45032300 Ry
     Harris-Foulkes estimate   =    -318.45032312 Ry
     estimated scf accuracy    <       0.00000018 Ry

     iteration #  8     ecut=    50.00 Ry     beta=0.70
     Davidson diagonalization with overlap
     ethr =  6.43E-10,  avg # of iterations =  3.0

     total cpu time spent up to now is      746.5 secs

     End of self-consistent calculation

     Number of k-points >= 100: set verbosity='high' to print the bands.

     the Fermi energy is    10.0353 ev

!    total energy              =    -318.45032307 Ry
     Harris-Foulkes estimate   =    -318.45032308 Ry
     estimated scf accuracy    <          9.1E-09 Ry

     The total energy is the sum of the following terms:

     one-electron contribution =    -121.28192753 Ry
     hartree contribution      =      80.30211360 Ry
     xc contribution           =     -86.01888254 Ry
     ewald contribution        =    -191.45164162 Ry
     smearing contrib. (-TS)   =       0.00001502 Ry

     convergence has been achieved in   8 iterations

     Writing output data file sn.beta.11.40.save

     init_run     :     23.66s CPU     24.22s WALL (       1 calls)
     electrons    :    692.11s CPU    722.29s WALL (       1 calls)

     Called by init_run:
     wfcinit      :     22.49s CPU     23.03s WALL (       1 calls)
     potinit      :      0.32s CPU      0.33s WALL (       1 calls)

     Called by electrons:
     c_bands      :    563.75s CPU    588.79s WALL (       8 calls)
     sum_band     :    126.43s CPU    131.37s WALL (       8 calls)
     v_of_rho     :      1.00s CPU      1.05s WALL (       9 calls)
     newd         :      0.96s CPU      1.04s WALL (       9 calls)
     mix_rho      :      0.10s CPU      0.11s WALL (       8 calls)

     Called by c_bands:
     init_us_2    :      4.52s CPU      4.66s WALL (   13600 calls)
     cegterg      :    554.77s CPU    579.52s WALL (    6400 calls)

     Called by sum_band:
     sum_band:bec :      0.08s CPU      0.10s WALL (    6400 calls)
     addusdens    :      1.09s CPU      1.21s WALL (       8 calls)

     Called by *egterg:
     h_psi        :    530.23s CPU    553.63s WALL (   25917 calls)
     s_psi        :      2.77s CPU      2.84s WALL (   25917 calls)
     g_psi        :      1.01s CPU      1.04s WALL (   18717 calls)
     cdiaghg      :     17.26s CPU     17.82s WALL (   25117 calls)

     Called by h_psi:
     h_psi:pot    :    528.57s CPU    551.92s WALL (   25917 calls)
     h_psi:calbec :      7.85s CPU      8.19s WALL (   25917 calls)
     vloc_psi     :    517.13s CPU    540.01s WALL (   25917 calls)
     add_vuspsi   :      3.57s CPU      3.62s WALL (   25917 calls)

     General routines
     calbec       :     10.41s CPU     10.91s WALL (   32317 calls)
     fft          :      0.71s CPU      0.76s WALL (     140 calls)
     ffts         :      0.01s CPU      0.01s WALL (      17 calls)
     fftw         :    397.90s CPU    418.21s WALL (  802766 calls)
     interpolate  :      0.12s CPU      0.13s WALL (      17 calls)
     davcio       :      0.02s CPU      0.05s WALL (     800 calls)

     Parallel routines
     fft_scatter  :     98.14s CPU    107.72s WALL (  802923 calls)

     PWSCF        : 11m56.81s CPU    12m41.41s WALL


   This run was terminated on:  10:41:22  13Nov2017            

=------------------------------------------------------------------------------=
   JOB DONE.
=------------------------------------------------------------------------------=
