
     Program PWSCF v.6.1 (svn rev. 13369) starts on 11Nov2017 at 16:47:33 

     This program is part of the open-source Quantum ESPRESSO suite
     for quantum simulation of materials; please cite
         "P. Giannozzi et al., J. Phys.:Condens. Matter 21 395502 (2009);
          URL http://www.quantum-espresso.org", 
     in publications or presentations arising from this work. More details at
     http://www.quantum-espresso.org/quote

     Parallel version (MPI), running on     4 processors
     R & G space division:  proc/nbgrp/npool/nimage =       4
     Waiting for input...
     Reading input from standard input
     Message from routine read_cards :
     DEPRECATED: no units specified in ATOMIC_POSITIONS card
     Message from routine read_cards :
     ATOMIC_POSITIONS: units set to alat

     Current dimensions of program PWSCF are:
     Max number of different atomic species (ntypx) = 10
     Max number of k-points (npk) =  40000
     Max angular momentum in pseudopotentials (lmaxx) =  3

     Subspace diagonalization in iterative solution of the eigenvalue problem:
     a serial algorithm will be used


     Parallelization info
     --------------------
     sticks:   dense  smooth     PW     G-vecs:    dense   smooth      PW
     Min         545     274     84                16833     5957    1003
     Max         547     275     85                16835     5958    1005
     Sum        2185    1099    337                67337    23829    4015



     bravais-lattice index     =            2
     lattice parameter (alat)  =      12.5920  a.u.
     unit-cell volume          =     499.1420 (a.u.)^3
     number of atoms/cell      =            2
     number of atomic types    =            1
     number of electrons       =        28.00
     number of Kohn-Sham states=           14
     kinetic-energy cutoff     =      50.0000  Ry
     charge density cutoff     =     400.0000  Ry
     convergence threshold     =      1.0E-08
     mixing beta               =       0.7000
     number of iterations used =            8  plain     mixing
     Exchange-correlation      =  SLA  PW   PBX  PBC ( 1  4  3  4 0 0)

     celldm(1)=  12.592000  celldm(2)=   0.000000  celldm(3)=   0.000000
     celldm(4)=   0.000000  celldm(5)=   0.000000  celldm(6)=   0.000000

     crystal axes: (cart. coord. in units of alat)
               a(1) = (  -0.500000   0.000000   0.500000 )  
               a(2) = (   0.000000   0.500000   0.500000 )  
               a(3) = (  -0.500000   0.500000   0.000000 )  

     reciprocal axes: (cart. coord. in units 2 pi/alat)
               b(1) = ( -1.000000 -1.000000  1.000000 )  
               b(2) = (  1.000000  1.000000  1.000000 )  
               b(3) = ( -1.000000  1.000000 -1.000000 )  


     PseudoPot. # 1 for Sn read from file:
     /home/s1333534/quantum_espresso/qe-6.1/pseudo/sn_pbe_v1.4.uspp.F.UPF
     MD5 check sum: 469debedee59599fedebd795477fea03
     Pseudo is Ultrasoft + core correction, Zval = 14.0
     Generated by new atomic code, or converted to UPF format
     Using radial grid of  891 points,  6 beta functions with: 
                l(1) =   0
                l(2) =   0
                l(3) =   1
                l(4) =   1
                l(5) =   2
                l(6) =   2
     Q(r) pseudized with  8 coefficients,  rinner =    1.350   1.350   1.350
                                                       1.350   1.350

     atomic species   valence    mass     pseudopotential
        Sn            14.00   118.71000     Sn( 1.00)

     48 Sym. Ops., with inversion, found (24 have fractional translation)



   Cartesian axes

     site n.     atom                  positions (alat units)
         1           Sn  tau(   1) = (   0.0000000   0.0000000   0.0000000  )
         2           Sn  tau(   2) = (   0.2500000   0.2500000   0.2500000  )

     number of k points=   182

     Number of k-points >= 100: set verbosity='high' to print them.

     Dense  grid:    67337 G-vectors     FFT dimensions: (  60,  60,  60)

     Smooth grid:    23829 G-vectors     FFT dimensions: (  45,  45,  45)

     Estimated max dynamical RAM per process >      41.28MB

     Estimated total allocated dynamical RAM >     165.11MB

     Initial potential from superposition of free atoms

     starting charge   25.99991, renormalised to   28.00000
     Starting wfc are   18 randomized atomic wfcs

     total cpu time spent up to now is        3.8 secs

     per-process dynamical memory:    46.2 Mb

     Self-consistent Calculation

     iteration #  1     ecut=    50.00 Ry     beta=0.70
     Davidson diagonalization with overlap
     ethr =  1.00E-02,  avg # of iterations =  2.6

     total cpu time spent up to now is       13.3 secs

     total energy              =    -317.48454210 Ry
     Harris-Foulkes estimate   =    -319.54981723 Ry
     estimated scf accuracy    <       2.51621631 Ry

     iteration #  2     ecut=    50.00 Ry     beta=0.70
     Davidson diagonalization with overlap
     ethr =  8.99E-03,  avg # of iterations =  3.0

     total cpu time spent up to now is       23.7 secs

     total energy              =    -318.39371886 Ry
     Harris-Foulkes estimate   =    -318.71200770 Ry
     estimated scf accuracy    <       0.47378979 Ry

     iteration #  3     ecut=    50.00 Ry     beta=0.70
     Davidson diagonalization with overlap
     ethr =  1.69E-03,  avg # of iterations =  2.0

     total cpu time spent up to now is       33.0 secs

     total energy              =    -318.48885936 Ry
     Harris-Foulkes estimate   =    -318.49042934 Ry
     estimated scf accuracy    <       0.00287836 Ry

     iteration #  4     ecut=    50.00 Ry     beta=0.70
     Davidson diagonalization with overlap
     ethr =  1.03E-05,  avg # of iterations =  3.0

     total cpu time spent up to now is       42.8 secs

     total energy              =    -318.48974712 Ry
     Harris-Foulkes estimate   =    -318.48986351 Ry
     estimated scf accuracy    <       0.00017240 Ry

     iteration #  5     ecut=    50.00 Ry     beta=0.70
     Davidson diagonalization with overlap
     ethr =  6.16E-07,  avg # of iterations =  3.0

     total cpu time spent up to now is       52.7 secs

     total energy              =    -318.48980006 Ry
     Harris-Foulkes estimate   =    -318.48980073 Ry
     estimated scf accuracy    <       0.00000142 Ry

     iteration #  6     ecut=    50.00 Ry     beta=0.70
     Davidson diagonalization with overlap
     ethr =  5.07E-09,  avg # of iterations =  4.0

     total cpu time spent up to now is       63.3 secs

     total energy              =    -318.48980082 Ry
     Harris-Foulkes estimate   =    -318.48980087 Ry
     estimated scf accuracy    <       0.00000007 Ry

     iteration #  7     ecut=    50.00 Ry     beta=0.70
     Davidson diagonalization with overlap
     ethr =  2.61E-10,  avg # of iterations =  3.1

     total cpu time spent up to now is       73.5 secs

     End of self-consistent calculation

     Number of k-points >= 100: set verbosity='high' to print the bands.

     highest occupied level (ev):     6.9321

!    total energy              =    -318.48980086 Ry
     Harris-Foulkes estimate   =    -318.48980086 Ry
     estimated scf accuracy    <          2.4E-09 Ry

     The total energy is the sum of the following terms:

     one-electron contribution =    -162.58390539 Ry
     hartree contribution      =      97.74797981 Ry
     xc contribution           =     -85.95812931 Ry
     ewald contribution        =    -167.69574597 Ry

     convergence has been achieved in   7 iterations

     Writing output data file sn.alpha.12.592.save

     init_run     :      3.67s CPU      3.76s WALL (       1 calls)
     electrons    :     68.22s CPU     69.73s WALL (       1 calls)

     Called by init_run:
     wfcinit      :      3.18s CPU      3.25s WALL (       1 calls)
     potinit      :      0.06s CPU      0.06s WALL (       1 calls)

     Called by electrons:
     c_bands      :     57.84s CPU     58.98s WALL (       7 calls)
     sum_band     :      9.54s CPU      9.79s WALL (       7 calls)
     v_of_rho     :      0.35s CPU      0.37s WALL (       8 calls)
     newd         :      0.53s CPU      0.60s WALL (       8 calls)
     mix_rho      :      0.03s CPU      0.03s WALL (       7 calls)

     Called by c_bands:
     init_us_2    :      1.11s CPU      1.12s WALL (    2730 calls)
     cegterg      :     55.71s CPU     56.82s WALL (    1274 calls)

     Called by sum_band:
     sum_band:bec :      0.01s CPU      0.01s WALL (    1274 calls)
     addusdens    :      0.54s CPU      0.64s WALL (       7 calls)

     Called by *egterg:
     h_psi        :     51.21s CPU     52.29s WALL (    5220 calls)
     s_psi        :      0.62s CPU      0.63s WALL (    5220 calls)
     g_psi        :      0.23s CPU      0.23s WALL (    3764 calls)
     cdiaghg      :      2.18s CPU      2.20s WALL (    5038 calls)

     Called by h_psi:
     h_psi:pot    :     50.92s CPU     52.00s WALL (    5220 calls)
     h_psi:calbec :      1.46s CPU      1.48s WALL (    5220 calls)
     vloc_psi     :     48.68s CPU     49.72s WALL (    5220 calls)
     add_vuspsi   :      0.77s CPU      0.78s WALL (    5220 calls)

     General routines
     calbec       :      1.80s CPU      1.82s WALL (    6494 calls)
     fft          :      0.16s CPU      0.18s WALL (     124 calls)
     ffts         :      0.01s CPU      0.01s WALL (      15 calls)
     fftw         :     48.08s CPU     49.10s WALL (  138302 calls)
     interpolate  :      0.04s CPU      0.04s WALL (      15 calls)
     davcio       :      0.00s CPU      0.01s WALL (     182 calls)

     Parallel routines
     fft_scatter  :      5.95s CPU      5.97s WALL (  138441 calls)

     PWSCF        :  1m12.22s CPU     1m16.97s WALL


   This run was terminated on:  16:48:49  11Nov2017            

=------------------------------------------------------------------------------=
   JOB DONE.
=------------------------------------------------------------------------------=
