
     Program PWSCF v.6.1 (svn rev. 13369) starts on 13Nov2017 at 10:41:24 

     This program is part of the open-source Quantum ESPRESSO suite
     for quantum simulation of materials; please cite
         "P. Giannozzi et al., J. Phys.:Condens. Matter 21 395502 (2009);
          URL http://www.quantum-espresso.org", 
     in publications or presentations arising from this work. More details at
     http://www.quantum-espresso.org/quote

     Parallel version (MPI), running on     4 processors
     R & G space division:  proc/nbgrp/npool/nimage =       4
     Waiting for input...
     Reading input from standard input

     Current dimensions of program PWSCF are:
     Max number of different atomic species (ntypx) = 10
     Max number of k-points (npk) =  40000
     Max angular momentum in pseudopotentials (lmaxx) =  3

     Subspace diagonalization in iterative solution of the eigenvalue problem:
     a serial algorithm will be used


     Parallelization info
     --------------------
     sticks:   dense  smooth     PW     G-vecs:    dense   smooth      PW
     Min        1268     505    205                18445     4660    1201
     Max        1269     507    206                18446     4661    1202
     Sum        5073    2025    821                73781    18641    4805



     bravais-lattice index     =            0
     lattice parameter (alat)  =      11.4500  a.u.
     unit-cell volume          =     390.0446 (a.u.)^3
     number of atoms/cell      =            2
     number of atomic types    =            1
     number of electrons       =        28.00
     number of Kohn-Sham states=           18
     kinetic-energy cutoff     =      50.0000  Ry
     charge density cutoff     =     500.0000  Ry
     convergence threshold     =      1.0E-08
     mixing beta               =       0.7000
     number of iterations used =            8  plain     mixing
     Exchange-correlation      =  SLA  PW   PBX  PBC ( 1  4  3  4 0 0)

     celldm(1)=  11.450000  celldm(2)=   0.000000  celldm(3)=   0.000000
     celldm(4)=   0.000000  celldm(5)=   0.000000  celldm(6)=   0.000000

     crystal axes: (cart. coord. in units of alat)
               a(1) = (   0.986837   0.000000   0.000000 )  
               a(2) = (   0.000000   0.986837   0.000000 )  
               a(3) = (   0.493419   0.493419   0.266813 )  

     reciprocal axes: (cart. coord. in units 2 pi/alat)
               b(1) = (  1.013339  0.000000 -1.873974 )  
               b(2) = (  0.000000  1.013339 -1.873974 )  
               b(3) = (  0.000000  0.000000  3.747943 )  


     PseudoPot. # 1 for Sn read from file:
     /home/s1333534/quantum_espresso/qe-6.1/pseudo/sn_pbe_v1.4.uspp.F.UPF
     MD5 check sum: 469debedee59599fedebd795477fea03
     Pseudo is Ultrasoft + core correction, Zval = 14.0
     Generated by new atomic code, or converted to UPF format
     Using radial grid of  891 points,  6 beta functions with: 
                l(1) =   0
                l(2) =   0
                l(3) =   1
                l(4) =   1
                l(5) =   2
                l(6) =   2
     Q(r) pseudized with  8 coefficients,  rinner =    1.350   1.350   1.350
                                                       1.350   1.350

     atomic species   valence    mass     pseudopotential
        Sn            14.00   118.71000     Sn( 1.00)

     No symmetry found



   Cartesian axes

     site n.     atom                  positions (alat units)
         1           Sn  tau(   1) = (   1.0725850   1.3160481   0.0533919  )
         2           Sn  tau(   2) = (   0.5198369   0.2763739   0.0177973  )

     number of k points=   800  Marzari-Vanderbilt smearing, width (Ry)=  0.0200

     Number of k-points >= 100: set verbosity='high' to print them.

     Dense  grid:    73781 G-vectors     FFT dimensions: (  81,  81,  64)

     Smooth grid:    18641 G-vectors     FFT dimensions: (  54,  54,  40)

     Estimated max dynamical RAM per process >     144.30MB

     Estimated total allocated dynamical RAM >     577.19MB

     Initial potential from superposition of free atoms

     starting charge   25.99991, renormalised to   28.00000
     Starting wfc are   18 randomized atomic wfcs

     total cpu time spent up to now is       24.6 secs

     per-process dynamical memory:   159.5 Mb

     Self-consistent Calculation

     iteration #  1     ecut=    50.00 Ry     beta=0.70
     Davidson diagonalization with overlap
     ethr =  1.00E-02,  avg # of iterations =  3.9

     total cpu time spent up to now is      120.6 secs

     total energy              =    -317.49628849 Ry
     Harris-Foulkes estimate   =    -319.48654008 Ry
     estimated scf accuracy    <       2.43633703 Ry

     iteration #  2     ecut=    50.00 Ry     beta=0.70
     Davidson diagonalization with overlap
     ethr =  8.70E-03,  avg # of iterations =  2.6

     total cpu time spent up to now is      205.8 secs

     total energy              =    -318.35837625 Ry
     Harris-Foulkes estimate   =    -318.66209901 Ry
     estimated scf accuracy    <       0.44664334 Ry

     iteration #  3     ecut=    50.00 Ry     beta=0.70
     Davidson diagonalization with overlap
     ethr =  1.60E-03,  avg # of iterations =  2.0

     total cpu time spent up to now is      296.8 secs

     total energy              =    -318.45102915 Ry
     Harris-Foulkes estimate   =    -318.45281319 Ry
     estimated scf accuracy    <       0.00300350 Ry

     iteration #  4     ecut=    50.00 Ry     beta=0.70
     Davidson diagonalization with overlap
     ethr =  1.07E-05,  avg # of iterations =  3.6

     total cpu time spent up to now is      394.7 secs

     total energy              =    -318.45166453 Ry
     Harris-Foulkes estimate   =    -318.45184307 Ry
     estimated scf accuracy    <       0.00035363 Ry

     iteration #  5     ecut=    50.00 Ry     beta=0.70
     Davidson diagonalization with overlap
     ethr =  1.26E-06,  avg # of iterations =  2.6

     total cpu time spent up to now is      468.9 secs

     total energy              =    -318.45172131 Ry
     Harris-Foulkes estimate   =    -318.45173211 Ry
     estimated scf accuracy    <       0.00001854 Ry

     iteration #  6     ecut=    50.00 Ry     beta=0.70
     Davidson diagonalization with overlap
     ethr =  6.62E-08,  avg # of iterations =  3.0

     total cpu time spent up to now is      561.7 secs

     total energy              =    -318.45172863 Ry
     Harris-Foulkes estimate   =    -318.45172906 Ry
     estimated scf accuracy    <       0.00000097 Ry

     iteration #  7     ecut=    50.00 Ry     beta=0.70
     Davidson diagonalization with overlap
     ethr =  3.47E-09,  avg # of iterations =  2.7

     total cpu time spent up to now is      638.1 secs

     total energy              =    -318.45172875 Ry
     Harris-Foulkes estimate   =    -318.45172887 Ry
     estimated scf accuracy    <       0.00000018 Ry

     iteration #  8     ecut=    50.00 Ry     beta=0.70
     Davidson diagonalization with overlap
     ethr =  6.48E-10,  avg # of iterations =  3.0

     total cpu time spent up to now is      729.7 secs

     End of self-consistent calculation

     Number of k-points >= 100: set verbosity='high' to print the bands.

     the Fermi energy is     9.8477 ev

!    total energy              =    -318.45172882 Ry
     Harris-Foulkes estimate   =    -318.45172882 Ry
     estimated scf accuracy    <          9.8E-09 Ry

     The total energy is the sum of the following terms:

     one-electron contribution =    -122.61626487 Ry
     hartree contribution      =      80.78479734 Ry
     xc contribution           =     -86.00466380 Ry
     ewald contribution        =    -190.61560825 Ry
     smearing contrib. (-TS)   =       0.00001076 Ry

     convergence has been achieved in   8 iterations

     Writing output data file sn.beta.11.45.save

     init_run     :     23.95s CPU     24.53s WALL (       1 calls)
     electrons    :    683.69s CPU    705.18s WALL (       1 calls)

     Called by init_run:
     wfcinit      :     22.75s CPU     23.31s WALL (       1 calls)
     potinit      :      0.32s CPU      0.33s WALL (       1 calls)

     Called by electrons:
     c_bands      :    554.91s CPU    571.17s WALL (       8 calls)
     sum_band     :    126.84s CPU    131.85s WALL (       8 calls)
     v_of_rho     :      1.00s CPU      1.06s WALL (       9 calls)
     newd         :      0.96s CPU      1.04s WALL (       9 calls)
     mix_rho      :      0.11s CPU      0.11s WALL (       8 calls)

     Called by c_bands:
     init_us_2    :      4.73s CPU      4.83s WALL (   13600 calls)
     cegterg      :    545.88s CPU    561.90s WALL (    6400 calls)

     Called by sum_band:
     sum_band:bec :      0.08s CPU      0.10s WALL (    6400 calls)
     addusdens    :      1.09s CPU      1.23s WALL (       8 calls)

     Called by *egterg:
     h_psi        :    523.17s CPU    538.71s WALL (   25918 calls)
     s_psi        :      2.77s CPU      2.81s WALL (   25918 calls)
     g_psi        :      1.03s CPU      1.05s WALL (   18718 calls)
     cdiaghg      :     16.63s CPU     16.92s WALL (   25118 calls)

     Called by h_psi:
     h_psi:pot    :    521.55s CPU    537.03s WALL (   25918 calls)
     h_psi:calbec :      7.27s CPU      7.42s WALL (   25918 calls)
     vloc_psi     :    510.57s CPU    525.79s WALL (   25918 calls)
     add_vuspsi   :      3.68s CPU      3.73s WALL (   25918 calls)

     General routines
     calbec       :      9.82s CPU     10.17s WALL (   32318 calls)
     fft          :      0.73s CPU      0.79s WALL (     140 calls)
     ffts         :      0.01s CPU      0.01s WALL (      17 calls)
     fftw         :    393.97s CPU    407.98s WALL (  802762 calls)
     interpolate  :      0.12s CPU      0.13s WALL (      17 calls)
     davcio       :      0.01s CPU      0.04s WALL (     800 calls)

     Parallel routines
     fft_scatter  :     90.22s CPU     95.91s WALL (  802919 calls)

     PWSCF        : 11m48.70s CPU    12m32.86s WALL


   This run was terminated on:  10:53:57  13Nov2017            

=------------------------------------------------------------------------------=
   JOB DONE.
=------------------------------------------------------------------------------=
