
     Program PWSCF v.6.1 (svn rev. 13369) starts on 13Nov2017 at 10:15:37 

     This program is part of the open-source Quantum ESPRESSO suite
     for quantum simulation of materials; please cite
         "P. Giannozzi et al., J. Phys.:Condens. Matter 21 395502 (2009);
          URL http://www.quantum-espresso.org", 
     in publications or presentations arising from this work. More details at
     http://www.quantum-espresso.org/quote

     Parallel version (MPI), running on     4 processors
     R & G space division:  proc/nbgrp/npool/nimage =       4
     Waiting for input...
     Reading input from standard input

     Current dimensions of program PWSCF are:
     Max number of different atomic species (ntypx) = 10
     Max number of k-points (npk) =  40000
     Max angular momentum in pseudopotentials (lmaxx) =  3

     Subspace diagonalization in iterative solution of the eigenvalue problem:
     a serial algorithm will be used


     Parallelization info
     --------------------
     sticks:   dense  smooth     PW     G-vecs:    dense   smooth      PW
     Min        1249     499    199                17922     4540    1177
     Max        1250     501    200                17923     4541    1178
     Sum        4997    2001    797                71689    18161    4709



     bravais-lattice index     =            0
     lattice parameter (alat)  =      11.3500  a.u.
     unit-cell volume          =     379.9141 (a.u.)^3
     number of atoms/cell      =            2
     number of atomic types    =            1
     number of electrons       =        28.00
     number of Kohn-Sham states=           18
     kinetic-energy cutoff     =      50.0000  Ry
     charge density cutoff     =     500.0000  Ry
     convergence threshold     =      1.0E-08
     mixing beta               =       0.7000
     number of iterations used =            8  plain     mixing
     Exchange-correlation      =  SLA  PW   PBX  PBC ( 1  4  3  4 0 0)

     celldm(1)=  11.350000  celldm(2)=   0.000000  celldm(3)=   0.000000
     celldm(4)=   0.000000  celldm(5)=   0.000000  celldm(6)=   0.000000

     crystal axes: (cart. coord. in units of alat)
               a(1) = (   0.986837   0.000000   0.000000 )  
               a(2) = (   0.000000   0.986837   0.000000 )  
               a(3) = (   0.493419   0.493419   0.266813 )  

     reciprocal axes: (cart. coord. in units 2 pi/alat)
               b(1) = (  1.013339  0.000000 -1.873974 )  
               b(2) = (  0.000000  1.013339 -1.873974 )  
               b(3) = (  0.000000  0.000000  3.747943 )  


     PseudoPot. # 1 for Sn read from file:
     /home/s1333534/quantum_espresso/qe-6.1/pseudo/sn_pbe_v1.4.uspp.F.UPF
     MD5 check sum: 469debedee59599fedebd795477fea03
     Pseudo is Ultrasoft + core correction, Zval = 14.0
     Generated by new atomic code, or converted to UPF format
     Using radial grid of  891 points,  6 beta functions with: 
                l(1) =   0
                l(2) =   0
                l(3) =   1
                l(4) =   1
                l(5) =   2
                l(6) =   2
     Q(r) pseudized with  8 coefficients,  rinner =    1.350   1.350   1.350
                                                       1.350   1.350

     atomic species   valence    mass     pseudopotential
        Sn            14.00   118.71000     Sn( 1.00)

     No symmetry found



   Cartesian axes

     site n.     atom                  positions (alat units)
         1           Sn  tau(   1) = (   1.0725850   1.3160481   0.0533919  )
         2           Sn  tau(   2) = (   0.5198369   0.2763739   0.0177973  )

     number of k points=   800  Marzari-Vanderbilt smearing, width (Ry)=  0.0200

     Number of k-points >= 100: set verbosity='high' to print them.

     Dense  grid:    71689 G-vectors     FFT dimensions: (  80,  80,  64)

     Smooth grid:    18161 G-vectors     FFT dimensions: (  54,  54,  40)

     Estimated max dynamical RAM per process >     140.57MB

     Estimated total allocated dynamical RAM >     562.30MB

     Initial potential from superposition of free atoms

     starting charge   25.99991, renormalised to   28.00000
     Starting wfc are   18 randomized atomic wfcs

     total cpu time spent up to now is       28.4 secs

     per-process dynamical memory:   148.0 Mb

     Self-consistent Calculation

     iteration #  1     ecut=    50.00 Ry     beta=0.70
     Davidson diagonalization with overlap
     ethr =  1.00E-02,  avg # of iterations =  3.9

     total cpu time spent up to now is      160.3 secs

     total energy              =    -317.49916115 Ry
     Harris-Foulkes estimate   =    -319.47761211 Ry
     estimated scf accuracy    <       2.42218775 Ry

     iteration #  2     ecut=    50.00 Ry     beta=0.70
     Davidson diagonalization with overlap
     ethr =  8.65E-03,  avg # of iterations =  2.6

     total cpu time spent up to now is      266.7 secs

     total energy              =    -318.35606006 Ry
     Harris-Foulkes estimate   =    -318.65742802 Ry
     estimated scf accuracy    <       0.44327769 Ry

     iteration #  3     ecut=    50.00 Ry     beta=0.70
     Davidson diagonalization with overlap
     ethr =  1.58E-03,  avg # of iterations =  2.0

     total cpu time spent up to now is      382.5 secs

     total energy              =    -318.44798071 Ry
     Harris-Foulkes estimate   =    -318.44974209 Ry
     estimated scf accuracy    <       0.00297026 Ry

     iteration #  4     ecut=    50.00 Ry     beta=0.70
     Davidson diagonalization with overlap
     ethr =  1.06E-05,  avg # of iterations =  3.6

     total cpu time spent up to now is      466.2 secs

     total energy              =    -318.44860896 Ry
     Harris-Foulkes estimate   =    -318.44878192 Ry
     estimated scf accuracy    <       0.00034338 Ry

     iteration #  5     ecut=    50.00 Ry     beta=0.70
     Davidson diagonalization with overlap
     ethr =  1.23E-06,  avg # of iterations =  2.6

     total cpu time spent up to now is      530.9 secs

     total energy              =    -318.44866384 Ry
     Harris-Foulkes estimate   =    -318.44867448 Ry
     estimated scf accuracy    <       0.00001835 Ry

     iteration #  6     ecut=    50.00 Ry     beta=0.70
     Davidson diagonalization with overlap
     ethr =  6.55E-08,  avg # of iterations =  3.0

     total cpu time spent up to now is      613.7 secs

     total energy              =    -318.44867100 Ry
     Harris-Foulkes estimate   =    -318.44867143 Ry
     estimated scf accuracy    <       0.00000096 Ry

     iteration #  7     ecut=    50.00 Ry     beta=0.70
     Davidson diagonalization with overlap
     ethr =  3.42E-09,  avg # of iterations =  2.7

     total cpu time spent up to now is      682.9 secs

     total energy              =    -318.44867112 Ry
     Harris-Foulkes estimate   =    -318.44867124 Ry
     estimated scf accuracy    <       0.00000018 Ry

     iteration #  8     ecut=    50.00 Ry     beta=0.70
     Davidson diagonalization with overlap
     ethr =  6.37E-10,  avg # of iterations =  3.0

     total cpu time spent up to now is      766.2 secs

     End of self-consistent calculation

     Number of k-points >= 100: set verbosity='high' to print the bands.

     the Fermi energy is    10.2263 ev

!    total energy              =    -318.44867119 Ry
     Harris-Foulkes estimate   =    -318.44867119 Ry
     estimated scf accuracy    <          8.7E-09 Ry

     The total energy is the sum of the following terms:

     one-electron contribution =    -119.93751213 Ry
     hartree contribution      =      79.81725709 Ry
     xc contribution           =     -86.03339389 Ry
     ewald contribution        =    -192.29504092 Ry
     smearing contrib. (-TS)   =       0.00001866 Ry

     convergence has been achieved in   8 iterations

     Writing output data file sn.beta.11.35.save

     init_run     :     25.50s CPU     28.25s WALL (       1 calls)
     electrons    :    687.97s CPU    737.89s WALL (       1 calls)

     Called by init_run:
     wfcinit      :     24.31s CPU     26.89s WALL (       1 calls)
     potinit      :      0.34s CPU      0.38s WALL (       1 calls)

     Called by electrons:
     c_bands      :    575.17s CPU    618.29s WALL (       8 calls)
     sum_band     :    110.86s CPU    117.40s WALL (       8 calls)
     v_of_rho     :      0.99s CPU      1.11s WALL (       9 calls)
     newd         :      0.98s CPU      1.14s WALL (       9 calls)
     mix_rho      :      0.09s CPU      0.10s WALL (       8 calls)

     Called by c_bands:
     init_us_2    :      4.45s CPU      4.62s WALL (   13600 calls)
     cegterg      :    566.07s CPU    608.61s WALL (    6400 calls)

     Called by sum_band:
     sum_band:bec :      0.08s CPU      0.09s WALL (    6400 calls)
     addusdens    :      1.03s CPU      1.21s WALL (       8 calls)

     Called by *egterg:
     h_psi        :    532.76s CPU    572.33s WALL (   25946 calls)
     s_psi        :      3.74s CPU      3.89s WALL (   25946 calls)
     g_psi        :      0.96s CPU      0.99s WALL (   18746 calls)
     cdiaghg      :     20.55s CPU     22.63s WALL (   25146 calls)

     Called by h_psi:
     h_psi:pot    :    530.46s CPU    569.91s WALL (   25946 calls)
     h_psi:calbec :     10.31s CPU     11.69s WALL (   25946 calls)
     vloc_psi     :    514.59s CPU    552.41s WALL (   25946 calls)
     add_vuspsi   :      5.53s CPU      5.70s WALL (   25946 calls)

     General routines
     calbec       :     13.35s CPU     15.02s WALL (   32346 calls)
     fft          :      0.70s CPU      0.81s WALL (     140 calls)
     ffts         :      0.02s CPU      0.02s WALL (      17 calls)
     fftw         :    429.45s CPU    465.48s WALL (  802776 calls)
     interpolate  :      0.12s CPU      0.13s WALL (      17 calls)
     davcio       :      0.02s CPU      0.04s WALL (     800 calls)

     Parallel routines
     fft_scatter  :    130.39s CPU    151.74s WALL (  802933 calls)

     PWSCF        : 11m54.66s CPU    13m 1.97s WALL


   This run was terminated on:  10:28:38  13Nov2017            

=------------------------------------------------------------------------------=
   JOB DONE.
=------------------------------------------------------------------------------=
