
     Program PWSCF v.6.1 (svn rev. 13369) starts on 13Nov2017 at  1:36: 6 

     This program is part of the open-source Quantum ESPRESSO suite
     for quantum simulation of materials; please cite
         "P. Giannozzi et al., J. Phys.:Condens. Matter 21 395502 (2009);
          URL http://www.quantum-espresso.org", 
     in publications or presentations arising from this work. More details at
     http://www.quantum-espresso.org/quote

     Parallel version (MPI), running on     4 processors
     R & G space division:  proc/nbgrp/npool/nimage =       4
     Waiting for input...
     Reading input from standard input

     Current dimensions of program PWSCF are:
     Max number of different atomic species (ntypx) = 10
     Max number of k-points (npk) =  40000
     Max angular momentum in pseudopotentials (lmaxx) =  3

     Subspace diagonalization in iterative solution of the eigenvalue problem:
     a serial algorithm will be used


     Parallelization info
     --------------------
     sticks:   dense  smooth     PW     G-vecs:    dense   smooth      PW
     Min        1177     470    192                16439     4178    1078
     Max        1178     472    193                16440     4179    1079
     Sum        4709    1885    769                65757    16713    4313



     bravais-lattice index     =            0
     lattice parameter (alat)  =      11.0300  a.u.
     unit-cell volume          =     348.6779 (a.u.)^3
     number of atoms/cell      =            2
     number of atomic types    =            1
     number of electrons       =        28.00
     number of Kohn-Sham states=           18
     kinetic-energy cutoff     =      50.0000  Ry
     charge density cutoff     =     500.0000  Ry
     convergence threshold     =      1.0E-08
     mixing beta               =       0.7000
     number of iterations used =            8  plain     mixing
     Exchange-correlation      =  SLA  PW   PBX  PBC ( 1  4  3  4 0 0)

     celldm(1)=  11.030000  celldm(2)=   0.000000  celldm(3)=   0.000000
     celldm(4)=   0.000000  celldm(5)=   0.000000  celldm(6)=   0.000000

     crystal axes: (cart. coord. in units of alat)
               a(1) = (   0.986837   0.000000   0.000000 )  
               a(2) = (   0.000000   0.986837   0.000000 )  
               a(3) = (   0.493419   0.493419   0.266813 )  

     reciprocal axes: (cart. coord. in units 2 pi/alat)
               b(1) = (  1.013339  0.000000 -1.873974 )  
               b(2) = (  0.000000  1.013339 -1.873974 )  
               b(3) = (  0.000000  0.000000  3.747943 )  


     PseudoPot. # 1 for Sn read from file:
     /home/s1333534/quantum_espresso/qe-6.1/pseudo/sn_pbe_v1.4.uspp.F.UPF
     MD5 check sum: 469debedee59599fedebd795477fea03
     Pseudo is Ultrasoft + core correction, Zval = 14.0
     Generated by new atomic code, or converted to UPF format
     Using radial grid of  891 points,  6 beta functions with: 
                l(1) =   0
                l(2) =   0
                l(3) =   1
                l(4) =   1
                l(5) =   2
                l(6) =   2
     Q(r) pseudized with  8 coefficients,  rinner =    1.350   1.350   1.350
                                                       1.350   1.350

     atomic species   valence    mass     pseudopotential
        Sn            14.00   118.71000     Sn( 1.00)

     No symmetry found



   Cartesian axes

     site n.     atom                  positions (alat units)
         1           Sn  tau(   1) = (   1.0725850   1.3160481   0.0533919  )
         2           Sn  tau(   2) = (   0.5198369   0.2763739   0.0177973  )

     number of k points=   448  Marzari-Vanderbilt smearing, width (Ry)=  0.0200

     Number of k-points >= 100: set verbosity='high' to print them.

     Dense  grid:    65757 G-vectors     FFT dimensions: (  80,  80,  60)

     Smooth grid:    16713 G-vectors     FFT dimensions: (  50,  50,  40)

     Estimated max dynamical RAM per process >      78.81MB

     Estimated total allocated dynamical RAM >     315.23MB

     Initial potential from superposition of free atoms

     starting charge   25.99991, renormalised to   28.00000
     Starting wfc are   18 randomized atomic wfcs

     total cpu time spent up to now is       12.0 secs

     per-process dynamical memory:    88.2 Mb

     Self-consistent Calculation

     iteration #  1     ecut=    50.00 Ry     beta=0.70
     Davidson diagonalization with overlap
     ethr =  1.00E-02,  avg # of iterations =  4.0

     total cpu time spent up to now is       55.3 secs

     total energy              =    -317.50320168 Ry
     Harris-Foulkes estimate   =    -319.44146627 Ry
     estimated scf accuracy    <       2.37419604 Ry

     iteration #  2     ecut=    50.00 Ry     beta=0.70
     Davidson diagonalization with overlap
     ethr =  8.48E-03,  avg # of iterations =  2.5

     total cpu time spent up to now is       93.1 secs

     total energy              =    -318.34200921 Ry
     Harris-Foulkes estimate   =    -318.63494074 Ry
     estimated scf accuracy    <       0.43107148 Ry

     iteration #  3     ecut=    50.00 Ry     beta=0.70
     Davidson diagonalization with overlap
     ethr =  1.54E-03,  avg # of iterations =  2.0

     total cpu time spent up to now is      129.1 secs

     total energy              =    -318.43133219 Ry
     Harris-Foulkes estimate   =    -318.43299242 Ry
     estimated scf accuracy    <       0.00282341 Ry

     iteration #  4     ecut=    50.00 Ry     beta=0.70
     Davidson diagonalization with overlap
     ethr =  1.01E-05,  avg # of iterations =  3.6

     total cpu time spent up to now is      170.0 secs

     total energy              =    -318.43193246 Ry
     Harris-Foulkes estimate   =    -318.43208420 Ry
     estimated scf accuracy    <       0.00030429 Ry

     iteration #  5     ecut=    50.00 Ry     beta=0.70
     Davidson diagonalization with overlap
     ethr =  1.09E-06,  avg # of iterations =  2.6

     total cpu time spent up to now is      201.3 secs

     total energy              =    -318.43198015 Ry
     Harris-Foulkes estimate   =    -318.43199010 Ry
     estimated scf accuracy    <       0.00001724 Ry

     iteration #  6     ecut=    50.00 Ry     beta=0.70
     Davidson diagonalization with overlap
     ethr =  6.16E-08,  avg # of iterations =  3.0

     total cpu time spent up to now is      240.7 secs

     total energy              =    -318.43198658 Ry
     Harris-Foulkes estimate   =    -318.43198696 Ry
     estimated scf accuracy    <       0.00000082 Ry

     iteration #  7     ecut=    50.00 Ry     beta=0.70
     Davidson diagonalization with overlap
     ethr =  2.93E-09,  avg # of iterations =  2.9

     total cpu time spent up to now is      277.7 secs

     total energy              =    -318.43198670 Ry
     Harris-Foulkes estimate   =    -318.43198682 Ry
     estimated scf accuracy    <       0.00000017 Ry

     iteration #  8     ecut=    50.00 Ry     beta=0.70
     Davidson diagonalization with overlap
     ethr =  5.94E-10,  avg # of iterations =  2.9

     total cpu time spent up to now is      318.3 secs

     End of self-consistent calculation

     Number of k-points >= 100: set verbosity='high' to print the bands.

     the Fermi energy is    11.5086 ev

!    total energy              =    -318.43198676 Ry
     Harris-Foulkes estimate   =    -318.43198676 Ry
     estimated scf accuracy    <          4.8E-09 Ry

     The total energy is the sum of the following terms:

     one-electron contribution =    -111.08316156 Ry
     hartree contribution      =      76.65824542 Ry
     xc contribution           =     -86.13328817 Ry
     ewald contribution        =    -197.87386350 Ry
     smearing contrib. (-TS)   =       0.00008106 Ry

     convergence has been achieved in   8 iterations

     Writing output data file sn.beta.11.03.save

     init_run     :     11.71s CPU     11.98s WALL (       1 calls)
     electrons    :    299.12s CPU    306.29s WALL (       1 calls)

     Called by init_run:
     wfcinit      :     10.68s CPU     10.91s WALL (       1 calls)
     potinit      :      0.28s CPU      0.29s WALL (       1 calls)

     Called by electrons:
     c_bands      :    248.48s CPU    254.43s WALL (       8 calls)
     sum_band     :     48.96s CPU     50.04s WALL (       8 calls)
     v_of_rho     :      0.84s CPU      0.89s WALL (       9 calls)
     newd         :      0.84s CPU      0.91s WALL (       9 calls)
     mix_rho      :      0.08s CPU      0.08s WALL (       8 calls)

     Called by c_bands:
     init_us_2    :      2.42s CPU      2.46s WALL (    7616 calls)
     cegterg      :    243.92s CPU    249.79s WALL (    3584 calls)

     Called by sum_band:
     sum_band:bec :      0.04s CPU      0.05s WALL (    3584 calls)
     addusdens    :      0.93s CPU      1.04s WALL (       8 calls)

     Called by *egterg:
     h_psi        :    230.01s CPU    235.74s WALL (   14580 calls)
     s_psi        :      1.79s CPU      1.81s WALL (   14580 calls)
     g_psi        :      0.51s CPU      0.52s WALL (   10548 calls)
     cdiaghg      :      9.24s CPU      9.37s WALL (   14132 calls)

     Called by h_psi:
     h_psi:pot    :    228.87s CPU    234.56s WALL (   14580 calls)
     h_psi:calbec :      3.76s CPU      3.81s WALL (   14580 calls)
     vloc_psi     :    222.50s CPU    228.05s WALL (   14580 calls)
     add_vuspsi   :      2.60s CPU      2.63s WALL (   14580 calls)

     General routines
     calbec       :      4.96s CPU      5.03s WALL (   18164 calls)
     fft          :      0.54s CPU      0.59s WALL (     140 calls)
     ffts         :      0.01s CPU      0.01s WALL (      17 calls)
     fftw         :    180.41s CPU    185.08s WALL (  448624 calls)
     interpolate  :      0.10s CPU      0.11s WALL (      17 calls)
     davcio       :      0.01s CPU      0.02s WALL (     448 calls)

     Parallel routines
     fft_scatter  :     33.48s CPU     34.59s WALL (  448781 calls)

     PWSCF        :  5m11.50s CPU     5m26.21s WALL


   This run was terminated on:   1:41:32  13Nov2017            

=------------------------------------------------------------------------------=
   JOB DONE.
=------------------------------------------------------------------------------=
