
     Program PWSCF v.6.1 (svn rev. 13369) starts on 11Nov2017 at 15:34:38 

     This program is part of the open-source Quantum ESPRESSO suite
     for quantum simulation of materials; please cite
         "P. Giannozzi et al., J. Phys.:Condens. Matter 21 395502 (2009);
          URL http://www.quantum-espresso.org", 
     in publications or presentations arising from this work. More details at
     http://www.quantum-espresso.org/quote

     Parallel version (MPI), running on     4 processors
     R & G space division:  proc/nbgrp/npool/nimage =       4
     Waiting for input...
     Reading input from standard input
     Message from routine read_cards :
     DEPRECATED: no units specified in ATOMIC_POSITIONS card
     Message from routine read_cards :
     ATOMIC_POSITIONS: units set to alat

     Current dimensions of program PWSCF are:
     Max number of different atomic species (ntypx) = 10
     Max number of k-points (npk) =  40000
     Max angular momentum in pseudopotentials (lmaxx) =  3

     Subspace diagonalization in iterative solution of the eigenvalue problem:
     a serial algorithm will be used


     Parallelization info
     --------------------
     sticks:   dense  smooth     PW     G-vecs:    dense   smooth      PW
     Min         669     333     99                22694     7987    1302
     Max         670     334    100                22695     7989    1303
     Sum        2677    1333    397                90777    31951    5209



     bravais-lattice index     =            2
     lattice parameter (alat)  =      13.9000  a.u.
     unit-cell volume          =     671.4048 (a.u.)^3
     number of atoms/cell      =            2
     number of atomic types    =            1
     number of electrons       =        28.00
     number of Kohn-Sham states=           14
     kinetic-energy cutoff     =      50.0000  Ry
     charge density cutoff     =     400.0000  Ry
     convergence threshold     =      1.0E-08
     mixing beta               =       0.7000
     number of iterations used =            8  plain     mixing
     Exchange-correlation      =  SLA  PW   PBX  PBC ( 1  4  3  4 0 0)

     celldm(1)=  13.900000  celldm(2)=   0.000000  celldm(3)=   0.000000
     celldm(4)=   0.000000  celldm(5)=   0.000000  celldm(6)=   0.000000

     crystal axes: (cart. coord. in units of alat)
               a(1) = (  -0.500000   0.000000   0.500000 )  
               a(2) = (   0.000000   0.500000   0.500000 )  
               a(3) = (  -0.500000   0.500000   0.000000 )  

     reciprocal axes: (cart. coord. in units 2 pi/alat)
               b(1) = ( -1.000000 -1.000000  1.000000 )  
               b(2) = (  1.000000  1.000000  1.000000 )  
               b(3) = ( -1.000000  1.000000 -1.000000 )  


     PseudoPot. # 1 for Sn read from file:
     /home/s1333534/quantum_espresso/qe-6.1/pseudo/sn_pbe_v1.4.uspp.F.UPF
     MD5 check sum: 469debedee59599fedebd795477fea03
     Pseudo is Ultrasoft + core correction, Zval = 14.0
     Generated by new atomic code, or converted to UPF format
     Using radial grid of  891 points,  6 beta functions with: 
                l(1) =   0
                l(2) =   0
                l(3) =   1
                l(4) =   1
                l(5) =   2
                l(6) =   2
     Q(r) pseudized with  8 coefficients,  rinner =    1.350   1.350   1.350
                                                       1.350   1.350

     atomic species   valence    mass     pseudopotential
        Sn            14.00   118.71000     Sn( 1.00)

     48 Sym. Ops., with inversion, found (24 have fractional translation)



   Cartesian axes

     site n.     atom                  positions (alat units)
         1           Sn  tau(   1) = (   0.0000000   0.0000000   0.0000000  )
         2           Sn  tau(   2) = (   0.2500000   0.2500000   0.2500000  )

     number of k points=    60
                       cart. coord. in units 2pi/alat
        k(    1) = (  -0.0625000   0.0625000   0.0625000), wk =   0.0078125
        k(    2) = (  -0.1875000   0.1875000  -0.0625000), wk =   0.0234375
        k(    3) = (  -0.3125000   0.3125000  -0.1875000), wk =   0.0234375
        k(    4) = (  -0.4375000   0.4375000  -0.3125000), wk =   0.0234375
        k(    5) = (   0.4375000  -0.4375000   0.5625000), wk =   0.0234375
        k(    6) = (   0.3125000  -0.3125000   0.4375000), wk =   0.0234375
        k(    7) = (   0.1875000  -0.1875000   0.3125000), wk =   0.0234375
        k(    8) = (   0.0625000  -0.0625000   0.1875000), wk =   0.0234375
        k(    9) = (  -0.0625000   0.3125000   0.0625000), wk =   0.0234375
        k(   10) = (  -0.1875000   0.4375000  -0.0625000), wk =   0.0468750
        k(   11) = (  -0.3125000   0.5625000  -0.1875000), wk =   0.0468750
        k(   12) = (   0.5625000  -0.3125000   0.6875000), wk =   0.0468750
        k(   13) = (   0.4375000  -0.1875000   0.5625000), wk =   0.0468750
        k(   14) = (   0.3125000  -0.0625000   0.4375000), wk =   0.0468750
        k(   15) = (   0.1875000   0.0625000   0.3125000), wk =   0.0468750
        k(   16) = (  -0.0625000   0.5625000   0.0625000), wk =   0.0234375
        k(   17) = (  -0.1875000   0.6875000  -0.0625000), wk =   0.0468750
        k(   18) = (   0.6875000  -0.1875000   0.8125000), wk =   0.0468750
        k(   19) = (   0.5625000  -0.0625000   0.6875000), wk =   0.0468750
        k(   20) = (   0.4375000   0.0625000   0.5625000), wk =   0.0468750
        k(   21) = (   0.3125000   0.1875000   0.4375000), wk =   0.0468750
        k(   22) = (  -0.0625000   0.8125000   0.0625000), wk =   0.0234375
        k(   23) = (   0.8125000  -0.0625000   0.9375000), wk =   0.0468750
        k(   24) = (   0.6875000   0.0625000   0.8125000), wk =   0.0468750
        k(   25) = (   0.5625000   0.1875000   0.6875000), wk =   0.0468750
        k(   26) = (   0.4375000   0.3125000   0.5625000), wk =   0.0468750
        k(   27) = (  -0.0625000  -0.9375000   0.0625000), wk =   0.0234375
        k(   28) = (  -0.1875000  -0.8125000  -0.0625000), wk =   0.0468750
        k(   29) = (  -0.3125000  -0.6875000  -0.1875000), wk =   0.0468750
        k(   30) = (  -0.0625000  -0.6875000   0.0625000), wk =   0.0234375
        k(   31) = (  -0.1875000  -0.5625000  -0.0625000), wk =   0.0468750
        k(   32) = (  -0.0625000  -0.4375000   0.0625000), wk =   0.0234375
        k(   33) = (  -0.1875000   0.1875000   0.1875000), wk =   0.0078125
        k(   34) = (  -0.3125000   0.3125000   0.0625000), wk =   0.0234375
        k(   35) = (  -0.4375000   0.4375000  -0.0625000), wk =   0.0234375
        k(   36) = (   0.4375000  -0.4375000   0.8125000), wk =   0.0234375
        k(   37) = (   0.3125000  -0.3125000   0.6875000), wk =   0.0234375
        k(   38) = (   0.1875000  -0.1875000   0.5625000), wk =   0.0234375
        k(   39) = (  -0.1875000   0.4375000   0.1875000), wk =   0.0234375
        k(   40) = (  -0.3125000   0.5625000   0.0625000), wk =   0.0468750
        k(   41) = (   0.5625000  -0.3125000   0.9375000), wk =   0.0468750
        k(   42) = (   0.4375000  -0.1875000   0.8125000), wk =   0.0468750
        k(   43) = (   0.3125000  -0.0625000   0.6875000), wk =   0.0468750
        k(   44) = (  -0.1875000   0.6875000   0.1875000), wk =   0.0234375
        k(   45) = (   0.6875000  -0.1875000   1.0625000), wk =   0.0468750
        k(   46) = (   0.5625000  -0.0625000   0.9375000), wk =   0.0468750
        k(   47) = (   0.4375000   0.0625000   0.8125000), wk =   0.0468750
        k(   48) = (  -0.1875000  -1.0625000   0.1875000), wk =   0.0234375
        k(   49) = (  -0.3125000  -0.9375000   0.0625000), wk =   0.0468750
        k(   50) = (  -0.1875000  -0.8125000   0.1875000), wk =   0.0234375
        k(   51) = (  -0.3125000   0.3125000   0.3125000), wk =   0.0078125
        k(   52) = (  -0.4375000   0.4375000   0.1875000), wk =   0.0234375
        k(   53) = (   0.4375000  -0.4375000   1.0625000), wk =   0.0234375
        k(   54) = (   0.3125000  -0.3125000   0.9375000), wk =   0.0234375
        k(   55) = (  -0.3125000   0.5625000   0.3125000), wk =   0.0234375
        k(   56) = (   0.5625000  -0.3125000   1.1875000), wk =   0.0468750
        k(   57) = (   0.4375000  -0.1875000   1.0625000), wk =   0.0468750
        k(   58) = (  -0.3125000  -1.1875000   0.3125000), wk =   0.0234375
        k(   59) = (  -0.4375000   0.4375000   0.4375000), wk =   0.0078125
        k(   60) = (   0.4375000  -0.4375000   1.3125000), wk =   0.0234375

     Dense  grid:    90777 G-vectors     FFT dimensions: (  64,  64,  64)

     Smooth grid:    31951 G-vectors     FFT dimensions: (  45,  45,  45)

     Estimated max dynamical RAM per process >      28.90MB

     Estimated total allocated dynamical RAM >     115.60MB

     Check: negative/imaginary core charge=   -0.000001    0.000000

     Initial potential from superposition of free atoms

     starting charge   25.99991, renormalised to   28.00000
     Starting wfc are   18 randomized atomic wfcs

     total cpu time spent up to now is        1.8 secs

     per-process dynamical memory:    32.3 Mb

     Self-consistent Calculation

     iteration #  1     ecut=    50.00 Ry     beta=0.70
     Davidson diagonalization with overlap
     ethr =  1.00E-02,  avg # of iterations =  2.0

     total cpu time spent up to now is        5.5 secs

     total energy              =    -317.40268914 Ry
     Harris-Foulkes estimate   =    -319.56155613 Ry
     estimated scf accuracy    <       2.62597194 Ry

     iteration #  2     ecut=    50.00 Ry     beta=0.70
     Davidson diagonalization with overlap
     ethr =  9.38E-03,  avg # of iterations =  3.0

     total cpu time spent up to now is        9.7 secs

     total energy              =    -318.34743572 Ry
     Harris-Foulkes estimate   =    -318.67579407 Ry
     estimated scf accuracy    <       0.48394321 Ry

     iteration #  3     ecut=    50.00 Ry     beta=0.70
     Davidson diagonalization with overlap
     ethr =  1.73E-03,  avg # of iterations =  2.0

     total cpu time spent up to now is       13.4 secs

     total energy              =    -318.44665143 Ry
     Harris-Foulkes estimate   =    -318.44814715 Ry
     estimated scf accuracy    <       0.00282038 Ry

     iteration #  4     ecut=    50.00 Ry     beta=0.70
     Davidson diagonalization with overlap
     ethr =  1.01E-05,  avg # of iterations =  2.9

     total cpu time spent up to now is       17.3 secs

     total energy              =    -318.44747928 Ry
     Harris-Foulkes estimate   =    -318.44757281 Ry
     estimated scf accuracy    <       0.00013834 Ry

     iteration #  5     ecut=    50.00 Ry     beta=0.70
     Davidson diagonalization with overlap
     ethr =  4.94E-07,  avg # of iterations =  3.3

     total cpu time spent up to now is       21.5 secs

     total energy              =    -318.44752583 Ry
     Harris-Foulkes estimate   =    -318.44752638 Ry
     estimated scf accuracy    <       0.00000125 Ry

     iteration #  6     ecut=    50.00 Ry     beta=0.70
     Davidson diagonalization with overlap
     ethr =  4.47E-09,  avg # of iterations =  4.5

     total cpu time spent up to now is       25.5 secs

     total energy              =    -318.44752664 Ry
     Harris-Foulkes estimate   =    -318.44752665 Ry
     estimated scf accuracy    <       0.00000004 Ry

     iteration #  7     ecut=    50.00 Ry     beta=0.70
     Davidson diagonalization with overlap
     ethr =  1.51E-10,  avg # of iterations =  3.4

     total cpu time spent up to now is       29.9 secs

     End of self-consistent calculation

          k =-0.0625 0.0625 0.0625 (  3963 PWs)   bands (ev):

   -17.3946 -17.3946 -17.3931 -17.3721 -17.3721 -17.2760 -17.2760 -17.2652
   -17.2631 -17.2631  -4.6602   0.9048   3.9806   3.9806

          k =-0.1875 0.1875-0.0625 (  3988 PWs)   bands (ev):

   -17.3996 -17.3984 -17.3921 -17.3678 -17.3652 -17.2847 -17.2811 -17.2665
   -17.2598 -17.2567  -4.5286   0.3891   3.5439   3.8823

          k =-0.3125 0.3125-0.1875 (  3989 PWs)   bands (ev):

   -17.4046 -17.4039 -17.3871 -17.3606 -17.3568 -17.2927 -17.2885 -17.2721
   -17.2531 -17.2515  -4.2211  -0.4919   3.1498   3.5969

          k =-0.4375 0.4375-0.3125 (  3991 PWs)   bands (ev):

   -17.4079 -17.4072 -17.3822 -17.3547 -17.3518 -17.2969 -17.2938 -17.2777
   -17.2491 -17.2487  -3.8327  -1.2926   2.9263   3.3494

          k = 0.4375-0.4375 0.5625 (  4016 PWs)   bands (ev):

   -17.4092 -17.4078 -17.3808 -17.3523 -17.3522 -17.2971 -17.2965 -17.2795
   -17.2492 -17.2475  -3.6715  -1.5649   2.9002   3.2326

          k = 0.3125-0.3125 0.4375 (  3993 PWs)   bands (ev):

   -17.4075 -17.4057 -17.3841 -17.3563 -17.3528 -17.2967 -17.2922 -17.2755
   -17.2511 -17.2487  -3.9580  -1.0597   3.0683   3.2754

          k = 0.1875-0.1875 0.3125 (  3994 PWs)   bands (ev):

   -17.4034 -17.4018 -17.3895 -17.3631 -17.3589 -17.2917 -17.2856 -17.2694
   -17.2555 -17.2531  -4.3394  -0.1883   3.3975   3.4723

          k = 0.0625-0.0625 0.1875 (  3974 PWs)   bands (ev):

   -17.3971 -17.3965 -17.3936 -17.3704 -17.3673 -17.2830 -17.2777 -17.2643
   -17.2613 -17.2598  -4.5937   0.6302   3.7664   3.7672

          k =-0.0625 0.3125 0.0625 (  3997 PWs)   bands (ev):

   -17.4004 -17.3996 -17.3937 -17.3670 -17.3592 -17.2927 -17.2810 -17.2634
   -17.2587 -17.2569  -4.4615   0.1885   3.4411   3.4642

          k =-0.1875 0.4375-0.0625 (  3999 PWs)   bands (ev):

   -17.4057 -17.4043 -17.3883 -17.3607 -17.3496 -17.3026 -17.2876 -17.2690
   -17.2531 -17.2509  -4.2075  -0.4755   2.9239   3.2725

          k =-0.3125 0.5625-0.1875 (  4008 PWs)   bands (ev):

   -17.4119 -17.4081 -17.3788 -17.3532 -17.3441 -17.3078 -17.2951 -17.2793
   -17.2487 -17.2446  -3.8238  -1.2422   2.5167   3.0735

          k = 0.5625-0.3125 0.6875 (  4002 PWs)   bands (ev):

   -17.4145 -17.4099 -17.3720 -17.3475 -17.3448 -17.3054 -17.3013 -17.2869
   -17.2466 -17.2415  -3.5301  -1.7115   2.3078   3.0304

          k = 0.4375-0.1875 0.5625 (  4008 PWs)   bands (ev):

   -17.4132 -17.4096 -17.3740 -17.3520 -17.3447 -17.3053 -17.2969 -17.2858
   -17.2466 -17.2433  -3.7010  -1.4486   2.3388   3.1659

          k = 0.3125-0.0625 0.4375 (  4004 PWs)   bands (ev):

   -17.4080 -17.4069 -17.3827 -17.3588 -17.3495 -17.3012 -17.2900 -17.2762
   -17.2500 -17.2487  -4.0940  -0.7314   2.6436   3.4209

          k = 0.1875 0.0625 0.3125 (  3999 PWs)   bands (ev):

   -17.4027 -17.4012 -17.3906 -17.3650 -17.3588 -17.2924 -17.2837 -17.2675
   -17.2568 -17.2539  -4.3993  -0.0061   3.2325   3.6140

          k =-0.0625 0.5625 0.0625 (  4016 PWs)   bands (ev):

   -17.4073 -17.4066 -17.3887 -17.3551 -17.3379 -17.3165 -17.2929 -17.2672
   -17.2509 -17.2498  -4.0069  -0.8701   2.8370   2.8962

          k =-0.1875 0.6875-0.0625 (  4018 PWs)   bands (ev):

   -17.4124 -17.4106 -17.3786 -17.3470 -17.3283 -17.3262 -17.3011 -17.2777
   -17.2462 -17.2442  -3.6491  -1.4765   2.4528   2.7144

          k = 0.6875-0.1875 0.8125 (  4013 PWs)   bands (ev):

   -17.4177 -17.4123 -17.3661 -17.3387 -17.3297 -17.3245 -17.3097 -17.2904
   -17.2437 -17.2382  -3.2675  -2.0021   2.0596   2.6919

          k = 0.5625-0.0625 0.6875 (  4016 PWs)   bands (ev):

   -17.4188 -17.4124 -17.3632 -17.3400 -17.3338 -17.3171 -17.3111 -17.2942
   -17.2435 -17.2374  -3.3180  -1.9378   1.9239   2.8621

          k = 0.4375 0.0625 0.5625 (  4007 PWs)   bands (ev):

   -17.4144 -17.4105 -17.3712 -17.3519 -17.3412 -17.3092 -17.2970 -17.2884
   -17.2456 -17.2420  -3.7128  -1.3982   2.1733   3.1520

          k = 0.3125 0.1875 0.4375 (  4002 PWs)   bands (ev):

   -17.4079 -17.4060 -17.3837 -17.3579 -17.3512 -17.2991 -17.2908 -17.2756
   -17.2510 -17.2485  -4.0475  -0.8557   2.8282   3.3556

          k =-0.0625 0.8125 0.0625 (  4020 PWs)   bands (ev):

   -17.4129 -17.4121 -17.3750 -17.3422 -17.3381 -17.3133 -17.3098 -17.2809
   -17.2442 -17.2436  -3.3192  -1.9368   2.4661   2.5444

          k = 0.8125-0.0625 0.9375 (  4016 PWs)   bands (ev):

   -17.4157 -17.4138 -17.3620 -17.3501 -17.3289 -17.3191 -17.3056 -17.2939
   -17.2420 -17.2402  -2.8930  -2.4351   2.2460   2.4492

          k = 0.6875 0.0625 0.8125 (  4021 PWs)   bands (ev):

   -17.4191 -17.4135 -17.3608 -17.3348 -17.3306 -17.3204 -17.3177 -17.2954
   -17.2424 -17.2370  -3.0072  -2.3021   1.9590   2.6134

          k = 0.5625 0.1875 0.6875 (  4007 PWs)   bands (ev):

   -17.4173 -17.4114 -17.3666 -17.3430 -17.3392 -17.3117 -17.3069 -17.2914
   -17.2446 -17.2387  -3.3974  -1.8574   2.0597   2.9190

          k = 0.4375 0.3125 0.5625 (  4000 PWs)   bands (ev):

   -17.4110 -17.4084 -17.3777 -17.3520 -17.3490 -17.3005 -17.2964 -17.2820
   -17.2482 -17.2452  -3.6839  -1.5175   2.6221   3.1906

          k =-0.0625-0.9375 0.0625 (  4019 PWs)   bands (ev):

   -17.4139 -17.4133 -17.3653 -17.3543 -17.3289 -17.3192 -17.3015 -17.2906
   -17.2427 -17.2419  -2.8996  -2.4348   2.3898   2.4718

          k =-0.1875-0.8125-0.0625 (  4019 PWs)   bands (ev):

   -17.4146 -17.4128 -17.3710 -17.3387 -17.3382 -17.3165 -17.3098 -17.2850
   -17.2436 -17.2415  -3.2915  -1.9684   2.3147   2.5396

          k =-0.3125-0.6875-0.1875 (  4016 PWs)   bands (ev):

   -17.4153 -17.4104 -17.3729 -17.3467 -17.3358 -17.3174 -17.3017 -17.2845
   -17.2461 -17.2410  -3.5583  -1.6307   2.2516   2.8470

          k =-0.0625-0.6875 0.0625 (  4016 PWs)   bands (ev):

   -17.4105 -17.4097 -17.3828 -17.3470 -17.3294 -17.3255 -17.3008 -17.2730
   -17.2472 -17.2463  -3.6902  -1.4115   2.6168   2.6875

          k =-0.1875-0.5625-0.0625 (  4010 PWs)   bands (ev):

   -17.4092 -17.4075 -17.3845 -17.3546 -17.3395 -17.3142 -17.2935 -17.2722
   -17.2496 -17.2476  -3.9562  -0.9738   2.6583   2.9637

          k =-0.0625-0.4375 0.0625 (  3994 PWs)   bands (ev):

   -17.4037 -17.4030 -17.3921 -17.3618 -17.3488 -17.3040 -17.2861 -17.2638
   -17.2548 -17.2535  -4.2651  -0.3282   3.1177   3.1612

          k =-0.1875 0.1875 0.1875 (  4002 PWs)   bands (ev):

   -17.4005 -17.4005 -17.3911 -17.3649 -17.3649 -17.2848 -17.2848 -17.2685
   -17.2566 -17.2566  -4.4652   0.1710   3.7195   3.7195

          k =-0.3125 0.3125 0.0625 (  3997 PWs)   bands (ev):

   -17.4049 -17.4040 -17.3867 -17.3620 -17.3559 -17.2942 -17.2872 -17.2721
   -17.2535 -17.2513  -4.2760  -0.3337   2.9328   3.6827

          k =-0.4375 0.4375-0.0625 (  4009 PWs)   bands (ev):

   -17.4111 -17.4088 -17.3767 -17.3564 -17.3468 -17.3030 -17.2925 -17.2834
   -17.2473 -17.2460  -3.9275  -1.0500   2.3791   3.4017

          k = 0.4375-0.4375 0.8125 (  3998 PWs)   bands (ev):

   -17.4152 -17.4103 -17.3699 -17.3483 -17.3431 -17.3058 -17.3017 -17.2894
   -17.2455 -17.2408  -3.5535  -1.6612   2.1746   3.1172

          k = 0.3125-0.3125 0.6875 (  4005 PWs)   bands (ev):

   -17.4150 -17.4097 -17.3730 -17.3467 -17.3413 -17.3108 -17.3015 -17.2850
   -17.2468 -17.2410  -3.5420  -1.6781   2.2812   2.9596

          k = 0.1875-0.1875 0.5625 (  4009 PWs)   bands (ev):

   -17.4107 -17.4070 -17.3827 -17.3540 -17.3416 -17.3116 -17.2941 -17.2743
   -17.2502 -17.2457  -3.9110  -1.0722   2.6410   2.9745

          k =-0.1875 0.4375 0.1875 (  4001 PWs)   bands (ev):

   -17.4070 -17.4042 -17.3869 -17.3596 -17.3507 -17.3010 -17.2887 -17.2711
   -17.2531 -17.2497  -4.1535  -0.6165   2.9949   3.2107

          k =-0.3125 0.5625 0.0625 (  4011 PWs)   bands (ev):

   -17.4115 -17.4094 -17.3780 -17.3537 -17.3412 -17.3111 -17.2948 -17.2801
   -17.2471 -17.2452  -3.8568  -1.1597   2.4056   3.0756

          k = 0.5625-0.3125 0.9375 (  4012 PWs)   bands (ev):

   -17.4168 -17.4125 -17.3657 -17.3453 -17.3336 -17.3182 -17.3042 -17.2921
   -17.2435 -17.2394  -3.4566  -1.7564   2.0459   2.8236

          k = 0.4375-0.1875 0.8125 (  4013 PWs)   bands (ev):

   -17.4182 -17.4132 -17.3626 -17.3398 -17.3317 -17.3208 -17.3097 -17.2943
   -17.2430 -17.2377  -3.2571  -2.0166   2.0078   2.6834

          k = 0.3125-0.0625 0.6875 (  4012 PWs)   bands (ev):

   -17.4145 -17.4119 -17.3721 -17.3466 -17.3315 -17.3220 -17.3019 -17.2850
   -17.2443 -17.2418  -3.5695  -1.5968   2.2368   2.7604

          k =-0.1875 0.6875 0.1875 (  4018 PWs)   bands (ev):

   -17.4140 -17.4099 -17.3768 -17.3469 -17.3316 -17.3226 -17.3012 -17.2797
   -17.2471 -17.2424  -3.6173  -1.5329   2.3608   2.7849

          k = 0.6875-0.1875 1.0625 (  4016 PWs)   bands (ev):

   -17.4166 -17.4140 -17.3648 -17.3382 -17.3334 -17.3211 -17.3102 -17.2916
   -17.2421 -17.2395  -3.2393  -2.0287   2.1427   2.5141

          k = 0.5625-0.0625 0.9375 (  4023 PWs)   bands (ev):

   -17.4186 -17.4165 -17.3518 -17.3380 -17.3299 -17.3202 -17.3160 -17.3038
   -17.2395 -17.2374  -2.8766  -2.4361   2.0379   2.3059

          k = 0.4375 0.0625 0.8125 (  4017 PWs)   bands (ev):

   -17.4182 -17.4148 -17.3591 -17.3377 -17.3286 -17.3245 -17.3121 -17.2975
   -17.2412 -17.2378  -3.1688  -2.1112   2.0050   2.5208

          k =-0.1875-1.0625 0.1875 (  4016 PWs)   bands (ev):

   -17.4177 -17.4130 -17.3626 -17.3433 -17.3294 -17.3186 -17.3121 -17.2934
   -17.2428 -17.2382  -2.9369  -2.3844   2.0690   2.5863

          k =-0.3125-0.9375 0.0625 (  4020 PWs)   bands (ev):

   -17.4175 -17.4153 -17.3567 -17.3436 -17.3292 -17.3194 -17.3116 -17.2991
   -17.2407 -17.2384  -2.8835  -2.4356   2.1133   2.3685

          k =-0.1875-0.8125 0.1875 (  4014 PWs)   bands (ev):

   -17.4164 -17.4119 -17.3696 -17.3384 -17.3345 -17.3204 -17.3096 -17.2866
   -17.2443 -17.2397  -3.2817  -1.9822   2.1675   2.6534

          k =-0.3125 0.3125 0.3125 (  3993 PWs)   bands (ev):

   -17.4047 -17.4047 -17.3869 -17.3575 -17.3575 -17.2914 -17.2914 -17.2733
   -17.2517 -17.2517  -4.1135  -0.7531   3.4498   3.4498

          k =-0.4375 0.4375 0.1875 (  4006 PWs)   bands (ev):

   -17.4099 -17.4081 -17.3791 -17.3559 -17.3492 -17.3003 -17.2930 -17.2811
   -17.2479 -17.2472  -3.8941  -1.1444   2.5769   3.3847

          k = 0.4375-0.4375 1.0625 (  4009 PWs)   bands (ev):

   -17.4170 -17.4112 -17.3666 -17.3471 -17.3387 -17.3104 -17.3040 -17.2922
   -17.2447 -17.2392  -3.5303  -1.6637   2.0055   3.0888

          k = 0.3125-0.3125 0.9375 (  4012 PWs)   bands (ev):

   -17.4195 -17.4125 -17.3628 -17.3326 -17.3306 -17.3235 -17.3158 -17.2938
   -17.2434 -17.2364  -3.1634  -2.1250   1.8925   2.8016

          k =-0.3125 0.5625 0.3125 (  4010 PWs)   bands (ev):

   -17.4114 -17.4077 -17.3791 -17.3526 -17.3477 -17.3034 -17.2957 -17.2797
   -17.2494 -17.2449  -3.7628  -1.3754   2.6381   3.1045

          k = 0.5625-0.3125 1.1875 (  4013 PWs)   bands (ev):

   -17.4162 -17.4113 -17.3685 -17.3463 -17.3386 -17.3128 -17.3030 -17.2898
   -17.2449 -17.2400  -3.4808  -1.7467   2.1441   2.8974

          k = 0.4375-0.1875 1.0625 (  4015 PWs)   bands (ev):

   -17.4192 -17.4143 -17.3582 -17.3343 -17.3276 -17.3254 -17.3158 -17.2981
   -17.2415 -17.2367  -3.0882  -2.2063   1.9378   2.5672

          k =-0.3125-1.1875 0.3125 (  4002 PWs)   bands (ev):

   -17.4180 -17.4114 -17.3667 -17.3394 -17.3352 -17.3180 -17.3088 -17.2902
   -17.2444 -17.2380  -3.3223  -1.9453   2.0259   2.8556

          k =-0.4375 0.4375 0.4375 (  4005 PWs)   bands (ev):

   -17.4072 -17.4072 -17.3834 -17.3534 -17.3534 -17.2953 -17.2953 -17.2768
   -17.2496 -17.2496  -3.7536  -1.4449   3.2966   3.2966

          k = 0.4375-0.4375 1.3125 (  4002 PWs)   bands (ev):

   -17.4124 -17.4090 -17.3753 -17.3501 -17.3484 -17.3005 -17.2991 -17.2846
   -17.2473 -17.2439  -3.6014  -1.6354   2.4864   3.1686

     highest occupied level (ev):     3.9806

!    total energy              =    -318.44752667 Ry
     Harris-Foulkes estimate   =    -318.44752667 Ry
     estimated scf accuracy    <          3.0E-09 Ry

     The total energy is the sum of the following terms:

     one-electron contribution =    -188.70507262 Ry
     hartree contribution      =     107.90102993 Ry
     xc contribution           =     -85.72802834 Ry
     ewald contribution        =    -151.91545563 Ry

     convergence has been achieved in   7 iterations

     Writing output data file sn.alpha.13.9.save

     init_run     :      1.66s CPU      1.72s WALL (       1 calls)
     electrons    :     27.31s CPU     28.17s WALL (       1 calls)

     Called by init_run:
     wfcinit      :      1.20s CPU      1.23s WALL (       1 calls)
     potinit      :      0.07s CPU      0.08s WALL (       1 calls)

     Called by electrons:
     c_bands      :     21.82s CPU     22.32s WALL (       7 calls)
     sum_band     :      4.38s CPU      4.60s WALL (       7 calls)
     v_of_rho     :      0.45s CPU      0.47s WALL (       8 calls)
     newd         :      0.71s CPU      0.81s WALL (       8 calls)
     mix_rho      :      0.04s CPU      0.04s WALL (       7 calls)

     Called by c_bands:
     init_us_2    :      0.57s CPU      0.58s WALL (     900 calls)
     cegterg      :     20.82s CPU     21.32s WALL (     420 calls)

     Called by sum_band:
     sum_band:bec :      0.00s CPU      0.00s WALL (     420 calls)
     addusdens    :      0.76s CPU      0.90s WALL (       7 calls)

     Called by *egterg:
     h_psi        :     18.77s CPU     19.24s WALL (    1749 calls)
     s_psi        :      0.30s CPU      0.31s WALL (    1749 calls)
     g_psi        :      0.10s CPU      0.10s WALL (    1269 calls)
     cdiaghg      :      0.74s CPU      0.74s WALL (    1689 calls)

     Called by h_psi:
     h_psi:pot    :     18.61s CPU     19.08s WALL (    1749 calls)
     h_psi:calbec :      0.66s CPU      0.67s WALL (    1749 calls)
     vloc_psi     :     17.58s CPU     18.03s WALL (    1749 calls)
     add_vuspsi   :      0.37s CPU      0.37s WALL (    1749 calls)

     General routines
     calbec       :      0.82s CPU      0.84s WALL (    2169 calls)
     fft          :      0.19s CPU      0.21s WALL (     124 calls)
     ffts         :      0.01s CPU      0.01s WALL (      15 calls)
     fftw         :     16.33s CPU     16.72s WALL (   45406 calls)
     interpolate  :      0.05s CPU      0.05s WALL (      15 calls)
     davcio       :      0.00s CPU      0.00s WALL (      60 calls)

     Parallel routines
     fft_scatter  :      2.39s CPU      2.43s WALL (   45545 calls)

     PWSCF        :    29.14s CPU        31.28s WALL


   This run was terminated on:  15:35:10  11Nov2017            

=------------------------------------------------------------------------------=
   JOB DONE.
=------------------------------------------------------------------------------=
