
     Program PWSCF v.6.1 (svn rev. 13369) starts on 13Nov2017 at  1:52:19 

     This program is part of the open-source Quantum ESPRESSO suite
     for quantum simulation of materials; please cite
         "P. Giannozzi et al., J. Phys.:Condens. Matter 21 395502 (2009);
          URL http://www.quantum-espresso.org", 
     in publications or presentations arising from this work. More details at
     http://www.quantum-espresso.org/quote

     Parallel version (MPI), running on     4 processors
     R & G space division:  proc/nbgrp/npool/nimage =       4
     Waiting for input...
     Reading input from standard input

     Current dimensions of program PWSCF are:
     Max number of different atomic species (ntypx) = 10
     Max number of k-points (npk) =  40000
     Max angular momentum in pseudopotentials (lmaxx) =  3

     Subspace diagonalization in iterative solution of the eigenvalue problem:
     a serial algorithm will be used


     Parallelization info
     --------------------
     sticks:   dense  smooth     PW     G-vecs:    dense   smooth      PW
     Min        1195     479    192                16873     4276    1094
     Max        1197     480    193                16874     4277    1095
     Sum        4785    1917    769                67493    17105    4377



     bravais-lattice index     =            0
     lattice parameter (alat)  =      11.1200  a.u.
     unit-cell volume          =     357.2829 (a.u.)^3
     number of atoms/cell      =            2
     number of atomic types    =            1
     number of electrons       =        28.00
     number of Kohn-Sham states=           18
     kinetic-energy cutoff     =      50.0000  Ry
     charge density cutoff     =     500.0000  Ry
     convergence threshold     =      1.0E-08
     mixing beta               =       0.7000
     number of iterations used =            8  plain     mixing
     Exchange-correlation      =  SLA  PW   PBX  PBC ( 1  4  3  4 0 0)

     celldm(1)=  11.120000  celldm(2)=   0.000000  celldm(3)=   0.000000
     celldm(4)=   0.000000  celldm(5)=   0.000000  celldm(6)=   0.000000

     crystal axes: (cart. coord. in units of alat)
               a(1) = (   0.986837   0.000000   0.000000 )  
               a(2) = (   0.000000   0.986837   0.000000 )  
               a(3) = (   0.493419   0.493419   0.266813 )  

     reciprocal axes: (cart. coord. in units 2 pi/alat)
               b(1) = (  1.013339  0.000000 -1.873974 )  
               b(2) = (  0.000000  1.013339 -1.873974 )  
               b(3) = (  0.000000  0.000000  3.747943 )  


     PseudoPot. # 1 for Sn read from file:
     /home/s1333534/quantum_espresso/qe-6.1/pseudo/sn_pbe_v1.4.uspp.F.UPF
     MD5 check sum: 469debedee59599fedebd795477fea03
     Pseudo is Ultrasoft + core correction, Zval = 14.0
     Generated by new atomic code, or converted to UPF format
     Using radial grid of  891 points,  6 beta functions with: 
                l(1) =   0
                l(2) =   0
                l(3) =   1
                l(4) =   1
                l(5) =   2
                l(6) =   2
     Q(r) pseudized with  8 coefficients,  rinner =    1.350   1.350   1.350
                                                       1.350   1.350

     atomic species   valence    mass     pseudopotential
        Sn            14.00   118.71000     Sn( 1.00)

     No symmetry found



   Cartesian axes

     site n.     atom                  positions (alat units)
         1           Sn  tau(   1) = (   1.0725850   1.3160481   0.0533919  )
         2           Sn  tau(   2) = (   0.5198369   0.2763739   0.0177973  )

     number of k points=   448  Marzari-Vanderbilt smearing, width (Ry)=  0.0200

     Number of k-points >= 100: set verbosity='high' to print them.

     Dense  grid:    67493 G-vectors     FFT dimensions: (  80,  80,  60)

     Smooth grid:    17105 G-vectors     FFT dimensions: (  50,  50,  40)

     Estimated max dynamical RAM per process >      80.62MB

     Estimated total allocated dynamical RAM >     322.47MB

     Initial potential from superposition of free atoms

     starting charge   25.99991, renormalised to   28.00000
     Starting wfc are   18 randomized atomic wfcs

     total cpu time spent up to now is       11.9 secs

     per-process dynamical memory:    88.2 Mb

     Self-consistent Calculation

     iteration #  1     ecut=    50.00 Ry     beta=0.70
     Davidson diagonalization with overlap
     ethr =  1.00E-02,  avg # of iterations =  4.0

     total cpu time spent up to now is       57.3 secs

     total energy              =    -317.50328908 Ry
     Harris-Foulkes estimate   =    -319.45340430 Ry
     estimated scf accuracy    <       2.38830877 Ry

     iteration #  2     ecut=    50.00 Ry     beta=0.70
     Davidson diagonalization with overlap
     ethr =  8.53E-03,  avg # of iterations =  2.6

     total cpu time spent up to now is       96.0 secs

     total energy              =    -318.34742810 Ry
     Harris-Foulkes estimate   =    -318.64285299 Ry
     estimated scf accuracy    <       0.43468131 Ry

     iteration #  3     ecut=    50.00 Ry     beta=0.70
     Davidson diagonalization with overlap
     ethr =  1.55E-03,  avg # of iterations =  2.0

     total cpu time spent up to now is      134.9 secs

     total energy              =    -318.43751129 Ry
     Harris-Foulkes estimate   =    -318.43919731 Ry
     estimated scf accuracy    <       0.00286070 Ry

     iteration #  4     ecut=    50.00 Ry     beta=0.70
     Davidson diagonalization with overlap
     ethr =  1.02E-05,  avg # of iterations =  3.6

     total cpu time spent up to now is      177.1 secs

     total energy              =    -318.43811637 Ry
     Harris-Foulkes estimate   =    -318.43827274 Ry
     estimated scf accuracy    <       0.00031264 Ry

     iteration #  5     ecut=    50.00 Ry     beta=0.70
     Davidson diagonalization with overlap
     ethr =  1.12E-06,  avg # of iterations =  2.6

     total cpu time spent up to now is      209.7 secs

     total energy              =    -318.43816558 Ry
     Harris-Foulkes estimate   =    -318.43817570 Ry
     estimated scf accuracy    <       0.00001749 Ry

     iteration #  6     ecut=    50.00 Ry     beta=0.70
     Davidson diagonalization with overlap
     ethr =  6.25E-08,  avg # of iterations =  3.0

     total cpu time spent up to now is      250.5 secs

     total energy              =    -318.43817219 Ry
     Harris-Foulkes estimate   =    -318.43817257 Ry
     estimated scf accuracy    <       0.00000084 Ry

     iteration #  7     ecut=    50.00 Ry     beta=0.70
     Davidson diagonalization with overlap
     ethr =  3.01E-09,  avg # of iterations =  2.8

     total cpu time spent up to now is      288.1 secs

     total energy              =    -318.43817231 Ry
     Harris-Foulkes estimate   =    -318.43817243 Ry
     estimated scf accuracy    <       0.00000017 Ry

     iteration #  8     ecut=    50.00 Ry     beta=0.70
     Davidson diagonalization with overlap
     ethr =  6.09E-10,  avg # of iterations =  2.9

     total cpu time spent up to now is      329.5 secs

     End of self-consistent calculation

     Number of k-points >= 100: set verbosity='high' to print the bands.

     the Fermi energy is    11.1247 ev

!    total energy              =    -318.43817237 Ry
     Harris-Foulkes estimate   =    -318.43817237 Ry
     estimated scf accuracy    <          5.5E-09 Ry

     The total energy is the sum of the following terms:

     one-electron contribution =    -113.61701227 Ry
     hartree contribution      =      77.55485807 Ry
     xc contribution           =     -86.10373259 Ry
     ewald contribution        =    -196.27236641 Ry
     smearing contrib. (-TS)   =       0.00008083 Ry

     convergence has been achieved in   8 iterations

     Writing output data file sn.beta.11.12.save

     init_run     :     11.56s CPU     11.82s WALL (       1 calls)
     electrons    :    310.39s CPU    317.71s WALL (       1 calls)

     Called by init_run:
     wfcinit      :     10.49s CPU     10.73s WALL (       1 calls)
     potinit      :      0.29s CPU      0.29s WALL (       1 calls)

     Called by electrons:
     c_bands      :    252.50s CPU    258.52s WALL (       8 calls)
     sum_band     :     56.21s CPU     57.37s WALL (       8 calls)
     v_of_rho     :      0.86s CPU      0.90s WALL (       9 calls)
     newd         :      0.86s CPU      0.92s WALL (       9 calls)
     mix_rho      :      0.08s CPU      0.08s WALL (       8 calls)

     Called by c_bands:
     init_us_2    :      2.28s CPU      2.34s WALL (    7616 calls)
     cegterg      :    247.90s CPU    253.81s WALL (    3584 calls)

     Called by sum_band:
     sum_band:bec :      0.04s CPU      0.05s WALL (    3584 calls)
     addusdens    :      0.96s CPU      1.08s WALL (       8 calls)

     Called by *egterg:
     h_psi        :    233.38s CPU    239.05s WALL (   14577 calls)
     s_psi        :      1.71s CPU      1.73s WALL (   14577 calls)
     g_psi        :      0.51s CPU      0.52s WALL (   10545 calls)
     cdiaghg      :      9.37s CPU      9.53s WALL (   14129 calls)

     Called by h_psi:
     h_psi:pot    :    232.42s CPU    238.06s WALL (   14577 calls)
     h_psi:calbec :      4.00s CPU      4.07s WALL (   14577 calls)
     vloc_psi     :    226.09s CPU    231.59s WALL (   14577 calls)
     add_vuspsi   :      2.33s CPU      2.35s WALL (   14577 calls)

     General routines
     calbec       :      5.15s CPU      5.23s WALL (   18161 calls)
     fft          :      0.57s CPU      0.62s WALL (     140 calls)
     ffts         :      0.01s CPU      0.01s WALL (      17 calls)
     fftw         :    186.16s CPU    190.76s WALL (  448392 calls)
     interpolate  :      0.10s CPU      0.10s WALL (      17 calls)
     davcio       :      0.01s CPU      0.02s WALL (     448 calls)

     Parallel routines
     fft_scatter  :     36.59s CPU     37.94s WALL (  448549 calls)

     PWSCF        :  5m22.57s CPU     5m37.31s WALL


   This run was terminated on:   1:57:57  13Nov2017            

=------------------------------------------------------------------------------=
   JOB DONE.
=------------------------------------------------------------------------------=
