
     Program Q2R v.6.1 (svn rev. 13369) starts on  1Dec2017 at 10:15:27 

     This program is part of the open-source Quantum ESPRESSO suite
     for quantum simulation of materials; please cite
         "P. Giannozzi et al., J. Phys.:Condens. Matter 21 395502 (2009);
          URL http://www.quantum-espresso.org", 
     in publications or presentations arising from this work. More details at
     http://www.quantum-espresso.org/quote

     Parallel version (MPI), running on     1 processors

     reading grid info from file sn.alpha.12.56.dyn0    
  reading force constants from file sn.alpha.12.56.dyn1
 macroscopic fields = T
  55.86351   0.00000   0.00000
   0.00000  55.86351  -0.00000
   0.00000  -0.00000  55.86351
  na=            1
   0.10389  -0.00000   0.00000
   0.00000   0.10389  -0.00000
  -0.00000  -0.00000   0.10389
  na=            2
   0.10389   0.00000  -0.00000
   0.00000   0.10389  -0.00000
   0.00000  -0.00000   0.10389
  nqs=            1
 q=   0.00000000  0.00000000  0.00000000
  reading force constants from file sn.alpha.12.56.dyn2
  nqs=            8
 q=  -0.10000000  0.10000000 -0.10000000
 q=  -0.10000000  0.10000000  0.10000000
 q=   0.10000000  0.10000000 -0.10000000
 q=   0.10000000 -0.10000000  0.10000000
 q=   0.10000000 -0.10000000 -0.10000000
 q=   0.10000000  0.10000000  0.10000000
 q=  -0.10000000 -0.10000000 -0.10000000
 q=  -0.10000000 -0.10000000  0.10000000
  reading force constants from file sn.alpha.12.56.dyn3
  nqs=            8
 q=  -0.20000000  0.20000000 -0.20000000
 q=  -0.20000000  0.20000000  0.20000000
 q=   0.20000000  0.20000000 -0.20000000
 q=   0.20000000 -0.20000000  0.20000000
 q=   0.20000000 -0.20000000 -0.20000000
 q=   0.20000000  0.20000000  0.20000000
 q=  -0.20000000 -0.20000000 -0.20000000
 q=  -0.20000000 -0.20000000  0.20000000
  reading force constants from file sn.alpha.12.56.dyn4
  nqs=            8
 q=  -0.30000000  0.30000000 -0.30000000
 q=  -0.30000000  0.30000000  0.30000000
 q=   0.30000000  0.30000000 -0.30000000
 q=   0.30000000 -0.30000000  0.30000000
 q=   0.30000000 -0.30000000 -0.30000000
 q=   0.30000000  0.30000000  0.30000000
 q=  -0.30000000 -0.30000000 -0.30000000
 q=  -0.30000000 -0.30000000  0.30000000
  reading force constants from file sn.alpha.12.56.dyn5
  nqs=            8
 q=  -0.40000000  0.40000000 -0.40000000
 q=  -0.40000000  0.40000000  0.40000000
 q=   0.40000000  0.40000000 -0.40000000
 q=   0.40000000 -0.40000000  0.40000000
 q=   0.40000000 -0.40000000 -0.40000000
 q=   0.40000000  0.40000000  0.40000000
 q=  -0.40000000 -0.40000000 -0.40000000
 q=  -0.40000000 -0.40000000  0.40000000
  reading force constants from file sn.alpha.12.56.dyn6
  nqs=            4
 q=   0.50000000 -0.50000000  0.50000000
 q=   0.50000000  0.50000000  0.50000000
 q=  -0.50000000  0.50000000  0.50000000
 q=   0.50000000  0.50000000 -0.50000000
  reading force constants from file sn.alpha.12.56.dyn7
  nqs=            6
 q=   0.00000000  0.20000000  0.00000000
 q=   0.00000000 -0.20000000  0.00000000
 q=   0.20000000  0.00000000  0.00000000
 q=  -0.20000000  0.00000000  0.00000000
 q=   0.00000000  0.00000000  0.20000000
 q=   0.00000000  0.00000000 -0.20000000
  reading force constants from file sn.alpha.12.56.dyn8
  nqs=           24
 q=  -0.10000000  0.30000000 -0.10000000
 q=   0.10000000  0.30000000 -0.10000000
 q=   0.10000000  0.30000000  0.10000000
 q=  -0.10000000  0.30000000  0.10000000
 q=   0.10000000 -0.30000000  0.10000000
 q=   0.10000000 -0.30000000 -0.10000000
 q=  -0.10000000 -0.30000000  0.10000000
 q=  -0.10000000 -0.30000000 -0.10000000
 q=   0.30000000 -0.10000000 -0.10000000
 q=  -0.30000000 -0.10000000  0.10000000
 q=   0.30000000  0.10000000  0.10000000
 q=   0.30000000 -0.10000000  0.10000000
 q=  -0.10000000 -0.10000000  0.30000000
 q=  -0.10000000  0.10000000 -0.30000000
 q=   0.10000000  0.10000000  0.30000000
 q=   0.10000000 -0.10000000 -0.30000000
 q=  -0.30000000  0.10000000 -0.10000000
 q=   0.10000000 -0.10000000  0.30000000
 q=  -0.30000000 -0.10000000 -0.10000000
 q=   0.30000000  0.10000000 -0.10000000
 q=   0.10000000  0.10000000 -0.30000000
 q=  -0.10000000 -0.10000000 -0.30000000
 q=  -0.30000000  0.10000000  0.10000000
 q=  -0.10000000  0.10000000  0.30000000
  reading force constants from file sn.alpha.12.56.dyn9
  nqs=           24
 q=  -0.20000000  0.40000000 -0.20000000
 q=   0.20000000  0.40000000 -0.20000000
 q=   0.20000000  0.40000000  0.20000000
 q=  -0.20000000  0.40000000  0.20000000
 q=   0.20000000 -0.40000000  0.20000000
 q=   0.20000000 -0.40000000 -0.20000000
 q=  -0.20000000 -0.40000000  0.20000000
 q=  -0.20000000 -0.40000000 -0.20000000
 q=   0.40000000 -0.20000000 -0.20000000
 q=  -0.40000000 -0.20000000  0.20000000
 q=   0.40000000  0.20000000  0.20000000
 q=   0.40000000 -0.20000000  0.20000000
 q=  -0.20000000 -0.20000000  0.40000000
 q=  -0.20000000  0.20000000 -0.40000000
 q=   0.20000000  0.20000000  0.40000000
 q=   0.20000000 -0.20000000 -0.40000000
 q=  -0.40000000  0.20000000 -0.20000000
 q=   0.20000000 -0.20000000  0.40000000
 q=  -0.40000000 -0.20000000 -0.20000000
 q=   0.40000000  0.20000000 -0.20000000
 q=   0.20000000  0.20000000 -0.40000000
 q=  -0.20000000 -0.20000000 -0.40000000
 q=  -0.40000000  0.20000000  0.20000000
 q=  -0.20000000  0.20000000  0.40000000
  reading force constants from file sn.alpha.12.56.dyn10
  nqs=           24
 q=  -0.30000000  0.50000000 -0.30000000
 q=  -0.30000000 -0.50000000  0.30000000
 q=  -0.30000000  0.50000000  0.30000000
 q=   0.30000000  0.50000000 -0.30000000
 q=   0.30000000  0.50000000  0.30000000
 q=   0.30000000 -0.50000000  0.30000000
 q=   0.30000000 -0.50000000 -0.30000000
 q=  -0.30000000 -0.50000000 -0.30000000
 q=   0.50000000 -0.30000000 -0.30000000
 q=  -0.50000000 -0.30000000  0.30000000
 q=   0.50000000  0.30000000  0.30000000
 q=   0.50000000 -0.30000000  0.30000000
 q=  -0.30000000 -0.30000000  0.50000000
 q=  -0.30000000  0.30000000 -0.50000000
 q=   0.30000000  0.30000000  0.50000000
 q=   0.30000000 -0.30000000 -0.50000000
 q=  -0.50000000  0.30000000 -0.30000000
 q=   0.30000000 -0.30000000  0.50000000
 q=  -0.50000000 -0.30000000 -0.30000000
 q=   0.50000000  0.30000000 -0.30000000
 q=   0.30000000  0.30000000 -0.50000000
 q=  -0.30000000 -0.30000000 -0.50000000
 q=  -0.50000000  0.30000000  0.30000000
 q=  -0.30000000  0.30000000  0.50000000
  reading force constants from file sn.alpha.12.56.dyn11
  nqs=           24
 q=   0.60000000 -0.40000000  0.60000000
 q=   0.60000000  0.40000000 -0.60000000
 q=   0.60000000 -0.40000000 -0.60000000
 q=  -0.60000000 -0.40000000  0.60000000
 q=  -0.60000000 -0.40000000 -0.60000000
 q=  -0.60000000  0.40000000 -0.60000000
 q=  -0.60000000  0.40000000  0.60000000
 q=   0.60000000  0.40000000  0.60000000
 q=  -0.40000000  0.60000000  0.60000000
 q=   0.40000000  0.60000000 -0.60000000
 q=  -0.40000000 -0.60000000 -0.60000000
 q=  -0.40000000  0.60000000 -0.60000000
 q=   0.60000000  0.60000000 -0.40000000
 q=   0.60000000 -0.60000000  0.40000000
 q=  -0.60000000 -0.60000000 -0.40000000
 q=  -0.60000000  0.60000000  0.40000000
 q=   0.40000000 -0.60000000  0.60000000
 q=  -0.60000000  0.60000000 -0.40000000
 q=   0.40000000  0.60000000  0.60000000
 q=  -0.40000000 -0.60000000  0.60000000
 q=  -0.60000000 -0.60000000  0.40000000
 q=   0.60000000  0.60000000  0.40000000
 q=   0.40000000 -0.60000000 -0.60000000
 q=   0.60000000 -0.60000000 -0.40000000
  reading force constants from file sn.alpha.12.56.dyn12
  nqs=           24
 q=   0.50000000 -0.30000000  0.50000000
 q=   0.50000000  0.30000000 -0.50000000
 q=   0.50000000 -0.30000000 -0.50000000
 q=  -0.50000000 -0.30000000  0.50000000
 q=  -0.50000000 -0.30000000 -0.50000000
 q=  -0.50000000  0.30000000 -0.50000000
 q=  -0.50000000  0.30000000  0.50000000
 q=   0.50000000  0.30000000  0.50000000
 q=  -0.30000000  0.50000000  0.50000000
 q=   0.30000000  0.50000000 -0.50000000
 q=  -0.30000000 -0.50000000 -0.50000000
 q=  -0.30000000  0.50000000 -0.50000000
 q=   0.50000000  0.50000000 -0.30000000
 q=   0.50000000 -0.50000000  0.30000000
 q=  -0.50000000 -0.50000000 -0.30000000
 q=  -0.50000000  0.50000000  0.30000000
 q=   0.30000000 -0.50000000  0.50000000
 q=  -0.50000000  0.50000000 -0.30000000
 q=   0.30000000  0.50000000  0.50000000
 q=  -0.30000000 -0.50000000  0.50000000
 q=  -0.50000000 -0.50000000  0.30000000
 q=   0.50000000  0.50000000  0.30000000
 q=   0.30000000 -0.50000000 -0.50000000
 q=   0.50000000 -0.50000000 -0.30000000
  reading force constants from file sn.alpha.12.56.dyn13
  nqs=           24
 q=   0.40000000 -0.20000000  0.40000000
 q=   0.40000000  0.20000000 -0.40000000
 q=   0.40000000 -0.20000000 -0.40000000
 q=  -0.40000000 -0.20000000  0.40000000
 q=  -0.40000000 -0.20000000 -0.40000000
 q=  -0.40000000  0.20000000 -0.40000000
 q=  -0.40000000  0.20000000  0.40000000
 q=   0.40000000  0.20000000  0.40000000
 q=  -0.20000000  0.40000000  0.40000000
 q=   0.20000000  0.40000000 -0.40000000
 q=  -0.20000000 -0.40000000 -0.40000000
 q=  -0.20000000  0.40000000 -0.40000000
 q=   0.40000000  0.40000000 -0.20000000
 q=   0.40000000 -0.40000000  0.20000000
 q=  -0.40000000 -0.40000000 -0.20000000
 q=  -0.40000000  0.40000000  0.20000000
 q=   0.20000000 -0.40000000  0.40000000
 q=  -0.40000000  0.40000000 -0.20000000
 q=   0.20000000  0.40000000  0.40000000
 q=  -0.20000000 -0.40000000  0.40000000
 q=  -0.40000000 -0.40000000  0.20000000
 q=   0.40000000  0.40000000  0.20000000
 q=   0.20000000 -0.40000000 -0.40000000
 q=   0.40000000 -0.40000000 -0.20000000
  reading force constants from file sn.alpha.12.56.dyn14
  nqs=           24
 q=   0.30000000 -0.10000000  0.30000000
 q=   0.30000000  0.10000000 -0.30000000
 q=   0.30000000 -0.10000000 -0.30000000
 q=  -0.30000000 -0.10000000  0.30000000
 q=  -0.30000000 -0.10000000 -0.30000000
 q=  -0.30000000  0.10000000 -0.30000000
 q=  -0.30000000  0.10000000  0.30000000
 q=   0.30000000  0.10000000  0.30000000
 q=  -0.10000000  0.30000000  0.30000000
 q=   0.10000000  0.30000000 -0.30000000
 q=  -0.10000000 -0.30000000 -0.30000000
 q=  -0.10000000  0.30000000 -0.30000000
 q=   0.30000000  0.30000000 -0.10000000
 q=   0.30000000 -0.30000000  0.10000000
 q=  -0.30000000 -0.30000000 -0.10000000
 q=  -0.30000000  0.30000000  0.10000000
 q=   0.10000000 -0.30000000  0.30000000
 q=  -0.30000000  0.30000000 -0.10000000
 q=   0.10000000  0.30000000  0.30000000
 q=  -0.10000000 -0.30000000  0.30000000
 q=  -0.30000000 -0.30000000  0.10000000
 q=   0.30000000  0.30000000  0.10000000
 q=   0.10000000 -0.30000000 -0.30000000
 q=   0.30000000 -0.30000000 -0.10000000
  reading force constants from file sn.alpha.12.56.dyn15
  nqs=           12
 q=   0.20000000  0.00000000  0.20000000
 q=  -0.20000000  0.00000000  0.20000000
 q=  -0.20000000  0.00000000 -0.20000000
 q=   0.20000000  0.00000000 -0.20000000
 q=   0.00000000  0.20000000  0.20000000
 q=  -0.00000000  0.20000000 -0.20000000
 q=   0.00000000 -0.20000000 -0.20000000
 q=   0.20000000  0.20000000  0.00000000
 q=   0.20000000 -0.20000000 -0.00000000
 q=  -0.20000000 -0.20000000  0.00000000
 q=  -0.20000000  0.20000000 -0.00000000
 q=  -0.00000000 -0.20000000  0.20000000
  reading force constants from file sn.alpha.12.56.dyn16
  nqs=            6
 q=   0.00000000  0.40000000  0.00000000
 q=   0.00000000 -0.40000000  0.00000000
 q=   0.40000000  0.00000000  0.00000000
 q=  -0.40000000  0.00000000  0.00000000
 q=   0.00000000  0.00000000  0.40000000
 q=   0.00000000  0.00000000 -0.40000000
  reading force constants from file sn.alpha.12.56.dyn17
  nqs=           24
 q=  -0.10000000  0.50000000 -0.10000000
 q=   0.10000000  0.50000000 -0.10000000
 q=   0.10000000  0.50000000  0.10000000
 q=  -0.10000000  0.50000000  0.10000000
 q=   0.10000000 -0.50000000  0.10000000
 q=   0.10000000 -0.50000000 -0.10000000
 q=  -0.10000000 -0.50000000  0.10000000
 q=  -0.10000000 -0.50000000 -0.10000000
 q=   0.50000000 -0.10000000 -0.10000000
 q=  -0.50000000 -0.10000000  0.10000000
 q=   0.50000000  0.10000000  0.10000000
 q=   0.50000000 -0.10000000  0.10000000
 q=  -0.10000000 -0.10000000  0.50000000
 q=  -0.10000000  0.10000000 -0.50000000
 q=   0.10000000  0.10000000  0.50000000
 q=   0.10000000 -0.10000000 -0.50000000
 q=  -0.50000000  0.10000000 -0.10000000
 q=   0.10000000 -0.10000000  0.50000000
 q=  -0.50000000 -0.10000000 -0.10000000
 q=   0.50000000  0.10000000 -0.10000000
 q=   0.10000000  0.10000000 -0.50000000
 q=  -0.10000000 -0.10000000 -0.50000000
 q=  -0.50000000  0.10000000  0.10000000
 q=  -0.10000000  0.10000000  0.50000000
  reading force constants from file sn.alpha.12.56.dyn18
  nqs=           24
 q=  -0.20000000  0.60000000 -0.20000000
 q=   0.20000000  0.60000000 -0.20000000
 q=   0.20000000  0.60000000  0.20000000
 q=  -0.20000000  0.60000000  0.20000000
 q=   0.20000000 -0.60000000  0.20000000
 q=   0.20000000 -0.60000000 -0.20000000
 q=  -0.20000000 -0.60000000  0.20000000
 q=  -0.20000000 -0.60000000 -0.20000000
 q=   0.60000000 -0.20000000 -0.20000000
 q=  -0.60000000 -0.20000000  0.20000000
 q=   0.60000000  0.20000000  0.20000000
 q=   0.60000000 -0.20000000  0.20000000
 q=  -0.20000000 -0.20000000  0.60000000
 q=  -0.20000000  0.20000000 -0.60000000
 q=   0.20000000  0.20000000  0.60000000
 q=   0.20000000 -0.20000000 -0.60000000
 q=  -0.60000000  0.20000000 -0.20000000
 q=   0.20000000 -0.20000000  0.60000000
 q=  -0.60000000 -0.20000000 -0.20000000
 q=   0.60000000  0.20000000 -0.20000000
 q=   0.20000000  0.20000000 -0.60000000
 q=  -0.20000000 -0.20000000 -0.60000000
 q=  -0.60000000  0.20000000  0.20000000
 q=  -0.20000000  0.20000000  0.60000000
  reading force constants from file sn.alpha.12.56.dyn19
  nqs=           24
 q=   0.70000000 -0.30000000  0.70000000
 q=   0.70000000  0.30000000 -0.70000000
 q=   0.70000000 -0.30000000 -0.70000000
 q=  -0.70000000 -0.30000000  0.70000000
 q=  -0.70000000 -0.30000000 -0.70000000
 q=  -0.70000000  0.30000000 -0.70000000
 q=  -0.70000000  0.30000000  0.70000000
 q=   0.70000000  0.30000000  0.70000000
 q=  -0.30000000  0.70000000  0.70000000
 q=   0.30000000  0.70000000 -0.70000000
 q=  -0.30000000 -0.70000000 -0.70000000
 q=  -0.30000000  0.70000000 -0.70000000
 q=   0.70000000  0.70000000 -0.30000000
 q=   0.70000000 -0.70000000  0.30000000
 q=  -0.70000000 -0.70000000 -0.30000000
 q=  -0.70000000  0.70000000  0.30000000
 q=   0.30000000 -0.70000000  0.70000000
 q=  -0.70000000  0.70000000 -0.30000000
 q=   0.30000000  0.70000000  0.70000000
 q=  -0.30000000 -0.70000000  0.70000000
 q=  -0.70000000 -0.70000000  0.30000000
 q=   0.70000000  0.70000000  0.30000000
 q=   0.30000000 -0.70000000 -0.70000000
 q=   0.70000000 -0.70000000 -0.30000000
  reading force constants from file sn.alpha.12.56.dyn20
  nqs=           24
 q=   0.60000000 -0.20000000  0.60000000
 q=   0.60000000  0.20000000 -0.60000000
 q=   0.60000000 -0.20000000 -0.60000000
 q=  -0.60000000 -0.20000000  0.60000000
 q=  -0.60000000 -0.20000000 -0.60000000
 q=  -0.60000000  0.20000000 -0.60000000
 q=  -0.60000000  0.20000000  0.60000000
 q=   0.60000000  0.20000000  0.60000000
 q=  -0.20000000  0.60000000  0.60000000
 q=   0.20000000  0.60000000 -0.60000000
 q=  -0.20000000 -0.60000000 -0.60000000
 q=  -0.20000000  0.60000000 -0.60000000
 q=   0.60000000  0.60000000 -0.20000000
 q=   0.60000000 -0.60000000  0.20000000
 q=  -0.60000000 -0.60000000 -0.20000000
 q=  -0.60000000  0.60000000  0.20000000
 q=   0.20000000 -0.60000000  0.60000000
 q=  -0.60000000  0.60000000 -0.20000000
 q=   0.20000000  0.60000000  0.60000000
 q=  -0.20000000 -0.60000000  0.60000000
 q=  -0.60000000 -0.60000000  0.20000000
 q=   0.60000000  0.60000000  0.20000000
 q=   0.20000000 -0.60000000 -0.60000000
 q=   0.60000000 -0.60000000 -0.20000000
  reading force constants from file sn.alpha.12.56.dyn21
  nqs=           24
 q=   0.50000000 -0.10000000  0.50000000
 q=   0.50000000  0.10000000 -0.50000000
 q=   0.50000000 -0.10000000 -0.50000000
 q=  -0.50000000 -0.10000000  0.50000000
 q=  -0.50000000 -0.10000000 -0.50000000
 q=  -0.50000000  0.10000000 -0.50000000
 q=  -0.50000000  0.10000000  0.50000000
 q=   0.50000000  0.10000000  0.50000000
 q=  -0.10000000  0.50000000  0.50000000
 q=   0.10000000  0.50000000 -0.50000000
 q=  -0.10000000 -0.50000000 -0.50000000
 q=  -0.10000000  0.50000000 -0.50000000
 q=   0.50000000  0.50000000 -0.10000000
 q=   0.50000000 -0.50000000  0.10000000
 q=  -0.50000000 -0.50000000 -0.10000000
 q=  -0.50000000  0.50000000  0.10000000
 q=   0.10000000 -0.50000000  0.50000000
 q=  -0.50000000  0.50000000 -0.10000000
 q=   0.10000000  0.50000000  0.50000000
 q=  -0.10000000 -0.50000000  0.50000000
 q=  -0.50000000 -0.50000000  0.10000000
 q=   0.50000000  0.50000000  0.10000000
 q=   0.10000000 -0.50000000 -0.50000000
 q=   0.50000000 -0.50000000 -0.10000000
  reading force constants from file sn.alpha.12.56.dyn22
  nqs=           12
 q=   0.40000000  0.00000000  0.40000000
 q=  -0.40000000  0.00000000  0.40000000
 q=  -0.40000000  0.00000000 -0.40000000
 q=   0.40000000  0.00000000 -0.40000000
 q=   0.00000000  0.40000000  0.40000000
 q=  -0.00000000  0.40000000 -0.40000000
 q=   0.00000000 -0.40000000 -0.40000000
 q=   0.40000000  0.40000000  0.00000000
 q=   0.40000000 -0.40000000 -0.00000000
 q=  -0.40000000 -0.40000000  0.00000000
 q=  -0.40000000  0.40000000 -0.00000000
 q=  -0.00000000 -0.40000000  0.40000000
  reading force constants from file sn.alpha.12.56.dyn23
  nqs=            6
 q=   0.00000000  0.60000000  0.00000000
 q=   0.00000000 -0.60000000  0.00000000
 q=   0.60000000  0.00000000  0.00000000
 q=  -0.60000000  0.00000000  0.00000000
 q=   0.00000000  0.00000000  0.60000000
 q=   0.00000000  0.00000000 -0.60000000
  reading force constants from file sn.alpha.12.56.dyn24
  nqs=           24
 q=  -0.10000000  0.70000000 -0.10000000
 q=   0.10000000  0.70000000 -0.10000000
 q=   0.10000000  0.70000000  0.10000000
 q=  -0.10000000  0.70000000  0.10000000
 q=   0.10000000 -0.70000000  0.10000000
 q=   0.10000000 -0.70000000 -0.10000000
 q=  -0.10000000 -0.70000000 -0.10000000
 q=  -0.10000000 -0.70000000  0.10000000
 q=   0.70000000 -0.10000000 -0.10000000
 q=  -0.70000000 -0.10000000  0.10000000
 q=   0.70000000  0.10000000  0.10000000
 q=   0.70000000 -0.10000000  0.10000000
 q=  -0.10000000 -0.10000000  0.70000000
 q=  -0.10000000  0.10000000 -0.70000000
 q=   0.10000000  0.10000000  0.70000000
 q=   0.10000000 -0.10000000 -0.70000000
 q=  -0.70000000  0.10000000 -0.10000000
 q=   0.10000000 -0.10000000  0.70000000
 q=  -0.70000000 -0.10000000 -0.10000000
 q=   0.70000000  0.10000000 -0.10000000
 q=   0.10000000  0.10000000 -0.70000000
 q=  -0.10000000 -0.10000000 -0.70000000
 q=  -0.70000000  0.10000000  0.10000000
 q=  -0.10000000  0.10000000  0.70000000
  reading force constants from file sn.alpha.12.56.dyn25
  nqs=           24
 q=   0.80000000 -0.20000000  0.80000000
 q=   0.80000000  0.20000000 -0.80000000
 q=   0.80000000 -0.20000000 -0.80000000
 q=  -0.80000000 -0.20000000  0.80000000
 q=  -0.80000000 -0.20000000 -0.80000000
 q=  -0.80000000  0.20000000 -0.80000000
 q=  -0.80000000  0.20000000  0.80000000
 q=   0.80000000  0.20000000  0.80000000
 q=  -0.20000000  0.80000000  0.80000000
 q=   0.20000000  0.80000000 -0.80000000
 q=  -0.20000000 -0.80000000 -0.80000000
 q=  -0.20000000  0.80000000 -0.80000000
 q=   0.80000000  0.80000000 -0.20000000
 q=   0.80000000 -0.80000000  0.20000000
 q=  -0.80000000 -0.80000000 -0.20000000
 q=  -0.80000000  0.80000000  0.20000000
 q=   0.20000000 -0.80000000  0.80000000
 q=  -0.80000000  0.80000000 -0.20000000
 q=   0.20000000  0.80000000  0.80000000
 q=  -0.20000000 -0.80000000  0.80000000
 q=  -0.80000000 -0.80000000  0.20000000
 q=   0.80000000  0.80000000  0.20000000
 q=   0.20000000 -0.80000000 -0.80000000
 q=   0.80000000 -0.80000000 -0.20000000
  reading force constants from file sn.alpha.12.56.dyn26
  nqs=           24
 q=   0.70000000 -0.10000000  0.70000000
 q=   0.70000000  0.10000000 -0.70000000
 q=   0.70000000 -0.10000000 -0.70000000
 q=  -0.70000000 -0.10000000  0.70000000
 q=  -0.70000000 -0.10000000 -0.70000000
 q=  -0.70000000  0.10000000 -0.70000000
 q=  -0.70000000  0.10000000  0.70000000
 q=   0.70000000  0.10000000  0.70000000
 q=  -0.10000000  0.70000000  0.70000000
 q=   0.10000000  0.70000000 -0.70000000
 q=  -0.10000000 -0.70000000 -0.70000000
 q=  -0.10000000  0.70000000 -0.70000000
 q=   0.70000000  0.70000000 -0.10000000
 q=   0.70000000 -0.70000000  0.10000000
 q=  -0.70000000 -0.70000000 -0.10000000
 q=  -0.70000000  0.70000000  0.10000000
 q=   0.10000000 -0.70000000  0.70000000
 q=  -0.70000000  0.70000000 -0.10000000
 q=   0.10000000  0.70000000  0.70000000
 q=  -0.10000000 -0.70000000  0.70000000
 q=  -0.70000000 -0.70000000  0.10000000
 q=   0.70000000  0.70000000  0.10000000
 q=   0.10000000 -0.70000000 -0.70000000
 q=   0.70000000 -0.70000000 -0.10000000
  reading force constants from file sn.alpha.12.56.dyn27
  nqs=           12
 q=   0.60000000  0.00000000  0.60000000
 q=  -0.60000000  0.00000000  0.60000000
 q=  -0.60000000  0.00000000 -0.60000000
 q=   0.60000000  0.00000000 -0.60000000
 q=   0.00000000  0.60000000  0.60000000
 q=   0.00000000  0.60000000 -0.60000000
 q=   0.00000000 -0.60000000 -0.60000000
 q=   0.60000000  0.60000000  0.00000000
 q=   0.60000000 -0.60000000  0.00000000
 q=  -0.60000000 -0.60000000  0.00000000
 q=  -0.60000000  0.60000000  0.00000000
 q=   0.00000000 -0.60000000  0.60000000
  reading force constants from file sn.alpha.12.56.dyn28
  nqs=            6
 q=   0.00000000  0.80000000  0.00000000
 q=   0.00000000 -0.80000000  0.00000000
 q=   0.80000000  0.00000000  0.00000000
 q=  -0.80000000  0.00000000  0.00000000
 q=   0.00000000  0.00000000  0.80000000
 q=   0.00000000  0.00000000 -0.80000000
  reading force constants from file sn.alpha.12.56.dyn29
  nqs=           24
 q=   0.90000000 -0.10000000  0.90000000
 q=  -0.90000000 -0.10000000  0.90000000
 q=  -0.90000000 -0.10000000 -0.90000000
 q=   0.90000000 -0.10000000 -0.90000000
 q=  -0.90000000  0.10000000 -0.90000000
 q=  -0.90000000  0.10000000  0.90000000
 q=   0.90000000  0.10000000 -0.90000000
 q=   0.90000000  0.10000000  0.90000000
 q=  -0.10000000  0.90000000  0.90000000
 q=   0.10000000  0.90000000 -0.90000000
 q=  -0.10000000 -0.90000000 -0.90000000
 q=  -0.10000000  0.90000000 -0.90000000
 q=   0.90000000  0.90000000 -0.10000000
 q=   0.90000000 -0.90000000  0.10000000
 q=  -0.90000000 -0.90000000 -0.10000000
 q=  -0.90000000  0.90000000  0.10000000
 q=   0.10000000 -0.90000000  0.90000000
 q=  -0.90000000  0.90000000 -0.10000000
 q=   0.10000000  0.90000000  0.90000000
 q=  -0.10000000 -0.90000000  0.90000000
 q=  -0.90000000 -0.90000000  0.10000000
 q=   0.90000000  0.90000000  0.10000000
 q=   0.10000000 -0.90000000 -0.90000000
 q=   0.90000000 -0.90000000 -0.10000000
  reading force constants from file sn.alpha.12.56.dyn30
  nqs=           12
 q=   0.80000000  0.00000000  0.80000000
 q=   0.80000000  0.00000000 -0.80000000
 q=  -0.80000000  0.00000000  0.80000000
 q=  -0.80000000  0.00000000 -0.80000000
 q=   0.00000000  0.80000000  0.80000000
 q=   0.00000000  0.80000000 -0.80000000
 q=   0.00000000 -0.80000000 -0.80000000
 q=   0.80000000  0.80000000  0.00000000
 q=   0.80000000 -0.80000000  0.00000000
 q=  -0.80000000 -0.80000000  0.00000000
 q=  -0.80000000  0.80000000  0.00000000
 q=   0.00000000 -0.80000000  0.80000000
  reading force constants from file sn.alpha.12.56.dyn31
  nqs=            3
 q=   0.00000000 -1.00000000  0.00000000
 q=  -1.00000000  0.00000000  0.00000000
 q=   0.00000000  0.00000000 -1.00000000
  reading force constants from file sn.alpha.12.56.dyn32
  nqs=           24
 q=  -0.20000000  0.40000000  0.00000000
 q=  -0.20000000 -0.40000000 -0.00000000
 q=   0.20000000  0.40000000  0.00000000
 q=  -0.00000000  0.40000000  0.20000000
 q=  -0.00000000  0.40000000 -0.20000000
 q=   0.20000000 -0.40000000 -0.00000000
 q=   0.00000000 -0.40000000 -0.20000000
 q=   0.00000000 -0.40000000  0.20000000
 q=   0.40000000  0.00000000 -0.20000000
 q=  -0.40000000  0.00000000  0.20000000
 q=   0.40000000 -0.00000000  0.20000000
 q=   0.40000000 -0.20000000 -0.00000000
 q=   0.00000000 -0.20000000  0.40000000
 q=   0.00000000  0.20000000 -0.40000000
 q=  -0.00000000  0.20000000  0.40000000
 q=  -0.00000000 -0.20000000 -0.40000000
 q=  -0.40000000  0.20000000  0.00000000
 q=  -0.40000000 -0.00000000 -0.20000000
 q=  -0.40000000 -0.20000000  0.00000000
 q=   0.40000000  0.20000000 -0.00000000
 q=  -0.20000000 -0.00000000 -0.40000000
 q=   0.20000000 -0.00000000 -0.40000000
 q=  -0.20000000  0.00000000  0.40000000
 q=   0.20000000 -0.00000000  0.40000000
  reading force constants from file sn.alpha.12.56.dyn33
  nqs=           48
 q=  -0.30000000  0.50000000 -0.10000000
 q=  -0.30000000  0.50000000  0.10000000
 q=  -0.30000000 -0.50000000  0.10000000
 q=  -0.30000000 -0.50000000 -0.10000000
 q=   0.30000000  0.50000000 -0.10000000
 q=   0.10000000  0.50000000  0.30000000
 q=  -0.10000000  0.50000000  0.30000000
 q=   0.10000000  0.50000000 -0.30000000
 q=   0.30000000 -0.50000000  0.10000000
 q=   0.30000000 -0.50000000 -0.10000000
 q=   0.30000000  0.50000000  0.10000000
 q=  -0.10000000  0.50000000 -0.30000000
 q=  -0.10000000 -0.50000000 -0.30000000
 q=   0.10000000 -0.50000000 -0.30000000
 q=  -0.10000000 -0.50000000  0.30000000
 q=   0.10000000 -0.50000000  0.30000000
 q=   0.50000000 -0.10000000 -0.30000000
 q=  -0.50000000 -0.10000000  0.30000000
 q=   0.50000000  0.10000000  0.30000000
 q=   0.50000000 -0.30000000  0.10000000
 q=  -0.10000000 -0.30000000  0.50000000
 q=  -0.10000000  0.30000000 -0.50000000
 q=   0.10000000  0.30000000  0.50000000
 q=   0.10000000 -0.30000000 -0.50000000
 q=   0.50000000 -0.10000000  0.30000000
 q=  -0.50000000  0.30000000 -0.10000000
 q=   0.10000000 -0.30000000  0.50000000
 q=  -0.50000000  0.10000000 -0.30000000
 q=  -0.50000000 -0.30000000 -0.10000000
 q=   0.50000000 -0.30000000 -0.10000000
 q=  -0.50000000 -0.30000000  0.10000000
 q=   0.50000000  0.30000000  0.10000000
 q=  -0.30000000  0.10000000 -0.50000000
 q=   0.50000000  0.30000000 -0.10000000
 q=   0.30000000  0.10000000 -0.50000000
 q=  -0.30000000 -0.10000000 -0.50000000
 q=  -0.50000000  0.30000000  0.10000000
 q=  -0.30000000 -0.10000000  0.50000000
 q=   0.30000000  0.10000000  0.50000000
 q=   0.30000000 -0.10000000 -0.50000000
 q=  -0.50000000  0.10000000  0.30000000
 q=   0.50000000  0.10000000 -0.30000000
 q=  -0.50000000 -0.10000000 -0.30000000
 q=  -0.30000000  0.10000000  0.50000000
 q=   0.10000000  0.30000000 -0.50000000
 q=   0.30000000 -0.10000000  0.50000000
 q=  -0.10000000 -0.30000000 -0.50000000
 q=  -0.10000000  0.30000000  0.50000000
  reading force constants from file sn.alpha.12.56.dyn34
  nqs=           48
 q=   0.60000000 -0.40000000  0.80000000
 q=   0.60000000  0.40000000  0.80000000
 q=   0.60000000  0.40000000 -0.80000000
 q=   0.60000000 -0.40000000 -0.80000000
 q=  -0.60000000 -0.40000000  0.80000000
 q=  -0.80000000 -0.40000000 -0.60000000
 q=   0.80000000 -0.40000000 -0.60000000
 q=  -0.80000000 -0.40000000  0.60000000
 q=  -0.60000000  0.40000000 -0.80000000
 q=  -0.60000000  0.40000000  0.80000000
 q=  -0.60000000 -0.40000000 -0.80000000
 q=   0.80000000 -0.40000000  0.60000000
 q=   0.80000000  0.40000000  0.60000000
 q=  -0.80000000  0.40000000  0.60000000
 q=   0.80000000  0.40000000 -0.60000000
 q=  -0.80000000  0.40000000 -0.60000000
 q=  -0.40000000  0.80000000  0.60000000
 q=   0.40000000  0.80000000 -0.60000000
 q=  -0.40000000 -0.80000000 -0.60000000
 q=  -0.40000000  0.60000000 -0.80000000
 q=   0.80000000  0.60000000 -0.40000000
 q=   0.80000000 -0.60000000  0.40000000
 q=  -0.80000000 -0.60000000 -0.40000000
 q=  -0.80000000  0.60000000  0.40000000
 q=  -0.40000000  0.80000000 -0.60000000
 q=   0.40000000 -0.60000000  0.80000000
 q=  -0.80000000  0.60000000 -0.40000000
 q=   0.40000000 -0.80000000  0.60000000
 q=   0.40000000  0.60000000  0.80000000
 q=  -0.40000000  0.60000000  0.80000000
 q=   0.40000000  0.60000000 -0.80000000
 q=  -0.40000000 -0.60000000 -0.80000000
 q=   0.60000000 -0.80000000  0.40000000
 q=  -0.40000000 -0.60000000  0.80000000
 q=  -0.60000000 -0.80000000  0.40000000
 q=   0.60000000  0.80000000  0.40000000
 q=   0.40000000 -0.60000000 -0.80000000
 q=   0.60000000  0.80000000 -0.40000000
 q=  -0.60000000 -0.80000000 -0.40000000
 q=  -0.60000000  0.80000000  0.40000000
 q=   0.40000000 -0.80000000 -0.60000000
 q=  -0.40000000 -0.80000000  0.60000000
 q=   0.40000000  0.80000000  0.60000000
 q=   0.60000000 -0.80000000 -0.40000000
 q=  -0.80000000 -0.60000000  0.40000000
 q=  -0.60000000  0.80000000 -0.40000000
 q=   0.80000000  0.60000000  0.40000000
 q=   0.80000000 -0.60000000 -0.40000000
  reading force constants from file sn.alpha.12.56.dyn35
  nqs=           24
 q=   0.50000000 -0.30000000  0.70000000
 q=   0.50000000  0.30000000 -0.70000000
 q=   0.50000000 -0.30000000 -0.70000000
 q=  -0.50000000 -0.30000000  0.70000000
 q=  -0.70000000 -0.30000000 -0.50000000
 q=   0.70000000 -0.30000000 -0.50000000
 q=  -0.70000000 -0.30000000  0.50000000
 q=  -0.50000000  0.30000000 -0.70000000
 q=  -0.50000000  0.30000000  0.70000000
 q=  -0.50000000 -0.30000000 -0.70000000
 q=   0.70000000 -0.30000000  0.50000000
 q=   0.70000000  0.30000000  0.50000000
 q=  -0.70000000  0.30000000  0.50000000
 q=   0.70000000  0.30000000 -0.50000000
 q=  -0.70000000  0.30000000 -0.50000000
 q=  -0.30000000  0.50000000 -0.70000000
 q=   0.70000000  0.50000000 -0.30000000
 q=  -0.70000000 -0.50000000 -0.30000000
 q=  -0.70000000  0.50000000  0.30000000
 q=   0.30000000 -0.50000000  0.70000000
 q=  -0.30000000  0.50000000  0.70000000
 q=   0.30000000  0.50000000 -0.70000000
 q=  -0.30000000 -0.50000000 -0.70000000
 q=  -0.50000000 -0.70000000 -0.30000000
  reading force constants from file sn.alpha.12.56.dyn36
  nqs=           24
 q=  -0.20000000  0.60000000  0.00000000
 q=  -0.20000000 -0.60000000  0.00000000
 q=   0.20000000  0.60000000  0.00000000
 q=   0.00000000  0.60000000  0.20000000
 q=   0.00000000  0.60000000 -0.20000000
 q=   0.20000000 -0.60000000  0.00000000
 q=   0.00000000 -0.60000000 -0.20000000
 q=   0.00000000 -0.60000000  0.20000000
 q=   0.60000000  0.00000000 -0.20000000
 q=  -0.60000000  0.00000000  0.20000000
 q=   0.60000000  0.00000000  0.20000000
 q=   0.60000000 -0.20000000  0.00000000
 q=  -0.00000000 -0.20000000  0.60000000
 q=   0.00000000  0.20000000 -0.60000000
 q=   0.00000000  0.20000000  0.60000000
 q=   0.00000000 -0.20000000 -0.60000000
 q=  -0.60000000  0.20000000  0.00000000
 q=  -0.60000000  0.00000000 -0.20000000
 q=  -0.60000000 -0.20000000  0.00000000
 q=   0.60000000  0.20000000  0.00000000
 q=  -0.20000000  0.00000000 -0.60000000
 q=   0.20000000  0.00000000 -0.60000000
 q=  -0.20000000 -0.00000000  0.60000000
 q=   0.20000000  0.00000000  0.60000000
  reading force constants from file sn.alpha.12.56.dyn37
  nqs=           48
 q=   0.70000000 -0.30000000  0.90000000
 q=   0.70000000  0.30000000  0.90000000
 q=   0.70000000  0.30000000 -0.90000000
 q=   0.70000000 -0.30000000 -0.90000000
 q=  -0.70000000 -0.30000000  0.90000000
 q=  -0.90000000 -0.30000000 -0.70000000
 q=   0.90000000 -0.30000000 -0.70000000
 q=  -0.90000000 -0.30000000  0.70000000
 q=  -0.70000000  0.30000000 -0.90000000
 q=  -0.70000000  0.30000000  0.90000000
 q=  -0.70000000 -0.30000000 -0.90000000
 q=   0.90000000 -0.30000000  0.70000000
 q=   0.90000000  0.30000000  0.70000000
 q=  -0.90000000  0.30000000  0.70000000
 q=   0.90000000  0.30000000 -0.70000000
 q=  -0.90000000  0.30000000 -0.70000000
 q=  -0.30000000  0.90000000  0.70000000
 q=   0.30000000  0.90000000 -0.70000000
 q=  -0.30000000 -0.90000000 -0.70000000
 q=  -0.30000000  0.70000000 -0.90000000
 q=   0.90000000  0.70000000 -0.30000000
 q=   0.90000000 -0.70000000  0.30000000
 q=  -0.90000000 -0.70000000 -0.30000000
 q=  -0.90000000  0.70000000  0.30000000
 q=  -0.30000000  0.90000000 -0.70000000
 q=   0.30000000 -0.70000000  0.90000000
 q=  -0.90000000  0.70000000 -0.30000000
 q=   0.30000000 -0.90000000  0.70000000
 q=   0.30000000  0.70000000  0.90000000
 q=  -0.30000000  0.70000000  0.90000000
 q=   0.30000000  0.70000000 -0.90000000
 q=  -0.30000000 -0.70000000 -0.90000000
 q=   0.70000000 -0.90000000  0.30000000
 q=  -0.30000000 -0.70000000  0.90000000
 q=  -0.70000000 -0.90000000  0.30000000
 q=   0.70000000  0.90000000  0.30000000
 q=   0.30000000 -0.70000000 -0.90000000
 q=   0.70000000  0.90000000 -0.30000000
 q=  -0.70000000 -0.90000000 -0.30000000
 q=  -0.70000000  0.90000000  0.30000000
 q=   0.30000000 -0.90000000 -0.70000000
 q=  -0.30000000 -0.90000000  0.70000000
 q=   0.30000000  0.90000000  0.70000000
 q=   0.70000000 -0.90000000 -0.30000000
 q=  -0.90000000 -0.70000000  0.30000000
 q=  -0.70000000  0.90000000 -0.30000000
 q=   0.90000000  0.70000000  0.30000000
 q=   0.90000000 -0.70000000 -0.30000000
  reading force constants from file sn.alpha.12.56.dyn38
  nqs=           48
 q=   0.60000000 -0.20000000  0.80000000
 q=   0.60000000  0.20000000  0.80000000
 q=   0.60000000  0.20000000 -0.80000000
 q=   0.60000000 -0.20000000 -0.80000000
 q=  -0.60000000 -0.20000000  0.80000000
 q=  -0.80000000 -0.20000000 -0.60000000
 q=   0.80000000 -0.20000000 -0.60000000
 q=  -0.80000000 -0.20000000  0.60000000
 q=  -0.60000000  0.20000000 -0.80000000
 q=  -0.60000000  0.20000000  0.80000000
 q=  -0.60000000 -0.20000000 -0.80000000
 q=   0.80000000 -0.20000000  0.60000000
 q=   0.80000000  0.20000000  0.60000000
 q=  -0.80000000  0.20000000  0.60000000
 q=   0.80000000  0.20000000 -0.60000000
 q=  -0.80000000  0.20000000 -0.60000000
 q=  -0.20000000  0.80000000  0.60000000
 q=   0.20000000  0.80000000 -0.60000000
 q=  -0.20000000 -0.80000000 -0.60000000
 q=  -0.20000000  0.60000000 -0.80000000
 q=   0.80000000  0.60000000 -0.20000000
 q=   0.80000000 -0.60000000  0.20000000
 q=  -0.80000000 -0.60000000 -0.20000000
 q=  -0.80000000  0.60000000  0.20000000
 q=  -0.20000000  0.80000000 -0.60000000
 q=   0.20000000 -0.60000000  0.80000000
 q=  -0.80000000  0.60000000 -0.20000000
 q=   0.20000000 -0.80000000  0.60000000
 q=   0.20000000  0.60000000  0.80000000
 q=  -0.20000000  0.60000000  0.80000000
 q=   0.20000000  0.60000000 -0.80000000
 q=  -0.20000000 -0.60000000 -0.80000000
 q=   0.60000000 -0.80000000  0.20000000
 q=  -0.20000000 -0.60000000  0.80000000
 q=  -0.60000000 -0.80000000  0.20000000
 q=   0.60000000  0.80000000  0.20000000
 q=   0.20000000 -0.60000000 -0.80000000
 q=   0.60000000  0.80000000 -0.20000000
 q=  -0.60000000 -0.80000000 -0.20000000
 q=  -0.60000000  0.80000000  0.20000000
 q=   0.20000000 -0.80000000 -0.60000000
 q=  -0.20000000 -0.80000000  0.60000000
 q=   0.20000000  0.80000000  0.60000000
 q=   0.60000000 -0.80000000 -0.20000000
 q=  -0.80000000 -0.60000000  0.20000000
 q=  -0.60000000  0.80000000 -0.20000000
 q=   0.80000000  0.60000000  0.20000000
 q=   0.80000000 -0.60000000 -0.20000000
  reading force constants from file sn.alpha.12.56.dyn39
  nqs=           48
 q=   0.50000000 -0.10000000  0.70000000
 q=   0.50000000  0.10000000  0.70000000
 q=   0.50000000  0.10000000 -0.70000000
 q=   0.50000000 -0.10000000 -0.70000000
 q=  -0.50000000 -0.10000000  0.70000000
 q=  -0.70000000 -0.10000000 -0.50000000
 q=   0.70000000 -0.10000000 -0.50000000
 q=  -0.70000000 -0.10000000  0.50000000
 q=  -0.50000000  0.10000000 -0.70000000
 q=  -0.50000000  0.10000000  0.70000000
 q=  -0.50000000 -0.10000000 -0.70000000
 q=   0.70000000 -0.10000000  0.50000000
 q=   0.70000000  0.10000000  0.50000000
 q=  -0.70000000  0.10000000  0.50000000
 q=   0.70000000  0.10000000 -0.50000000
 q=  -0.70000000  0.10000000 -0.50000000
 q=  -0.10000000  0.70000000  0.50000000
 q=   0.10000000  0.70000000 -0.50000000
 q=  -0.10000000 -0.70000000 -0.50000000
 q=  -0.10000000  0.50000000 -0.70000000
 q=   0.70000000  0.50000000 -0.10000000
 q=   0.70000000 -0.50000000  0.10000000
 q=  -0.70000000 -0.50000000 -0.10000000
 q=  -0.70000000  0.50000000  0.10000000
 q=  -0.10000000  0.70000000 -0.50000000
 q=   0.10000000 -0.50000000  0.70000000
 q=  -0.70000000  0.50000000 -0.10000000
 q=   0.10000000 -0.70000000  0.50000000
 q=   0.10000000  0.50000000  0.70000000
 q=  -0.10000000  0.50000000  0.70000000
 q=   0.10000000  0.50000000 -0.70000000
 q=  -0.10000000 -0.50000000 -0.70000000
 q=   0.50000000 -0.70000000  0.10000000
 q=  -0.10000000 -0.50000000  0.70000000
 q=  -0.50000000 -0.70000000  0.10000000
 q=   0.50000000  0.70000000  0.10000000
 q=   0.10000000 -0.50000000 -0.70000000
 q=   0.50000000  0.70000000 -0.10000000
 q=  -0.50000000 -0.70000000 -0.10000000
 q=  -0.50000000  0.70000000  0.10000000
 q=   0.10000000 -0.70000000 -0.50000000
 q=  -0.10000000 -0.70000000  0.50000000
 q=   0.10000000  0.70000000  0.50000000
 q=   0.50000000 -0.70000000 -0.10000000
 q=  -0.70000000 -0.50000000  0.10000000
 q=  -0.50000000  0.70000000 -0.10000000
 q=   0.70000000  0.50000000  0.10000000
 q=   0.70000000 -0.50000000 -0.10000000
  reading force constants from file sn.alpha.12.56.dyn40
  nqs=           24
 q=   0.40000000  0.00000000  0.60000000
 q=   0.40000000  0.00000000 -0.60000000
 q=  -0.40000000  0.00000000  0.60000000
 q=  -0.60000000  0.00000000 -0.40000000
 q=   0.60000000  0.00000000 -0.40000000
 q=  -0.60000000  0.00000000  0.40000000
 q=  -0.40000000  0.00000000 -0.60000000
 q=   0.60000000  0.00000000  0.40000000
 q=   0.00000000  0.60000000  0.40000000
 q=   0.00000000  0.60000000 -0.40000000
 q=   0.00000000 -0.60000000 -0.40000000
 q=   0.00000000  0.40000000 -0.60000000
 q=   0.60000000  0.40000000  0.00000000
 q=   0.60000000 -0.40000000  0.00000000
 q=  -0.60000000 -0.40000000  0.00000000
 q=  -0.60000000  0.40000000  0.00000000
 q=   0.00000000 -0.40000000  0.60000000
 q=   0.00000000 -0.60000000  0.40000000
 q=   0.00000000  0.40000000  0.60000000
 q=   0.00000000 -0.40000000 -0.60000000
 q=   0.40000000 -0.60000000  0.00000000
 q=  -0.40000000 -0.60000000  0.00000000
 q=   0.40000000  0.60000000  0.00000000
 q=  -0.40000000  0.60000000  0.00000000
  reading force constants from file sn.alpha.12.56.dyn41
  nqs=           24
 q=   0.80000000 -0.20000000  1.00000000
 q=   0.80000000  0.20000000 -1.00000000
 q=  -0.80000000 -0.20000000  1.00000000
 q=  -1.00000000 -0.20000000 -0.80000000
 q=  -1.00000000 -0.20000000  0.80000000
 q=  -0.80000000  0.20000000 -1.00000000
 q=   1.00000000  0.20000000  0.80000000
 q=   1.00000000  0.20000000 -0.80000000
 q=  -0.20000000  1.00000000  0.80000000
 q=   0.20000000  1.00000000 -0.80000000
 q=  -0.20000000 -1.00000000 -0.80000000
 q=  -0.20000000  0.80000000 -1.00000000
 q=   1.00000000  0.80000000 -0.20000000
 q=   1.00000000 -0.80000000  0.20000000
 q=  -1.00000000 -0.80000000 -0.20000000
 q=  -1.00000000  0.80000000  0.20000000
 q=   0.20000000 -0.80000000  1.00000000
 q=   0.20000000 -1.00000000  0.80000000
 q=   0.20000000  0.80000000  1.00000000
 q=  -0.20000000 -0.80000000 -1.00000000
 q=   0.80000000 -1.00000000  0.20000000
 q=  -0.80000000 -1.00000000  0.20000000
 q=   0.80000000  1.00000000 -0.20000000
 q=  -0.80000000 -1.00000000 -0.20000000
  reading force constants from file sn.alpha.12.56.dyn42
  nqs=           48
 q=   0.70000000 -0.10000000  0.90000000
 q=   0.70000000  0.10000000  0.90000000
 q=   0.70000000  0.10000000 -0.90000000
 q=   0.70000000 -0.10000000 -0.90000000
 q=  -0.70000000 -0.10000000  0.90000000
 q=  -0.90000000 -0.10000000 -0.70000000
 q=   0.90000000 -0.10000000 -0.70000000
 q=  -0.90000000 -0.10000000  0.70000000
 q=  -0.70000000  0.10000000 -0.90000000
 q=  -0.70000000  0.10000000  0.90000000
 q=  -0.70000000 -0.10000000 -0.90000000
 q=   0.90000000 -0.10000000  0.70000000
 q=   0.90000000  0.10000000  0.70000000
 q=  -0.90000000  0.10000000  0.70000000
 q=   0.90000000  0.10000000 -0.70000000
 q=  -0.90000000  0.10000000 -0.70000000
 q=  -0.10000000  0.90000000  0.70000000
 q=   0.10000000  0.90000000 -0.70000000
 q=  -0.10000000 -0.90000000 -0.70000000
 q=  -0.10000000  0.70000000 -0.90000000
 q=   0.90000000  0.70000000 -0.10000000
 q=   0.90000000 -0.70000000  0.10000000
 q=  -0.90000000 -0.70000000 -0.10000000
 q=  -0.90000000  0.70000000  0.10000000
 q=  -0.10000000  0.90000000 -0.70000000
 q=   0.10000000 -0.70000000  0.90000000
 q=  -0.90000000  0.70000000 -0.10000000
 q=   0.10000000 -0.90000000  0.70000000
 q=   0.10000000  0.70000000  0.90000000
 q=  -0.10000000  0.70000000  0.90000000
 q=   0.10000000  0.70000000 -0.90000000
 q=  -0.10000000 -0.70000000 -0.90000000
 q=   0.70000000 -0.90000000  0.10000000
 q=  -0.10000000 -0.70000000  0.90000000
 q=  -0.70000000 -0.90000000  0.10000000
 q=   0.70000000  0.90000000  0.10000000
 q=   0.10000000 -0.70000000 -0.90000000
 q=   0.70000000  0.90000000 -0.10000000
 q=  -0.70000000 -0.90000000 -0.10000000
 q=  -0.70000000  0.90000000  0.10000000
 q=   0.10000000 -0.90000000 -0.70000000
 q=  -0.10000000 -0.90000000  0.70000000
 q=   0.10000000  0.90000000  0.70000000
 q=   0.70000000 -0.90000000 -0.10000000
 q=  -0.90000000 -0.70000000  0.10000000
 q=  -0.70000000  0.90000000 -0.10000000
 q=   0.90000000  0.70000000  0.10000000
 q=   0.90000000 -0.70000000 -0.10000000
  reading force constants from file sn.alpha.12.56.dyn43
  nqs=           24
 q=   0.60000000  0.00000000  0.80000000
 q=   0.60000000  0.00000000 -0.80000000
 q=  -0.60000000  0.00000000  0.80000000
 q=  -0.80000000  0.00000000 -0.60000000
 q=   0.80000000  0.00000000 -0.60000000
 q=  -0.80000000  0.00000000  0.60000000
 q=  -0.60000000  0.00000000 -0.80000000
 q=   0.80000000  0.00000000  0.60000000
 q=   0.00000000  0.80000000  0.60000000
 q=   0.00000000  0.80000000 -0.60000000
 q=   0.00000000 -0.80000000 -0.60000000
 q=   0.00000000  0.60000000 -0.80000000
 q=   0.80000000  0.60000000  0.00000000
 q=   0.80000000 -0.60000000  0.00000000
 q=  -0.80000000 -0.60000000  0.00000000
 q=  -0.80000000  0.60000000  0.00000000
 q=   0.00000000 -0.60000000  0.80000000
 q=   0.00000000 -0.80000000  0.60000000
 q=   0.00000000  0.60000000  0.80000000
 q=   0.00000000 -0.60000000 -0.80000000
 q=   0.60000000 -0.80000000  0.00000000
 q=  -0.60000000 -0.80000000  0.00000000
 q=   0.60000000  0.80000000  0.00000000
 q=  -0.60000000  0.80000000  0.00000000
  reading force constants from file sn.alpha.12.56.dyn44
  nqs=           12
 q=  -0.20000000 -1.00000000  0.00000000
 q=   0.20000000 -1.00000000  0.00000000
 q=   0.00000000 -1.00000000  0.20000000
 q=   0.00000000 -1.00000000 -0.20000000
 q=  -1.00000000  0.00000000 -0.20000000
 q=   1.00000000  0.00000000  0.20000000
 q=  -1.00000000 -0.20000000  0.00000000
 q=   0.00000000 -0.20000000 -1.00000000
 q=   0.00000000  0.20000000  1.00000000
 q=   1.00000000  0.20000000  0.00000000
 q=  -0.20000000  0.00000000  1.00000000
 q=   0.20000000  0.00000000  1.00000000
  reading force constants from file sn.alpha.12.56.dyn45
  nqs=           24
 q=   0.60000000 -0.20000000  1.00000000
 q=   0.60000000  0.20000000 -1.00000000
 q=  -0.60000000 -0.20000000  1.00000000
 q=  -1.00000000 -0.20000000 -0.60000000
 q=  -1.00000000 -0.20000000  0.60000000
 q=  -0.60000000  0.20000000 -1.00000000
 q=   1.00000000  0.20000000  0.60000000
 q=   1.00000000  0.20000000 -0.60000000
 q=  -0.20000000  1.00000000  0.60000000
 q=   0.20000000  1.00000000 -0.60000000
 q=  -0.20000000 -1.00000000 -0.60000000
 q=  -0.20000000  0.60000000 -1.00000000
 q=   1.00000000  0.60000000 -0.20000000
 q=   1.00000000 -0.60000000  0.20000000
 q=  -1.00000000 -0.60000000 -0.20000000
 q=  -1.00000000  0.60000000  0.20000000
 q=   0.20000000 -0.60000000  1.00000000
 q=   0.20000000 -1.00000000  0.60000000
 q=   0.20000000  0.60000000  1.00000000
 q=  -0.20000000 -0.60000000 -1.00000000
 q=   0.60000000 -1.00000000  0.20000000
 q=  -0.60000000 -1.00000000  0.20000000
 q=   0.60000000  1.00000000 -0.20000000
 q=  -0.60000000 -1.00000000 -0.20000000
  reading force constants from file sn.alpha.12.56.dyn46
  nqs=           24
 q=   0.50000000 -0.10000000  0.90000000
 q=   0.50000000  0.10000000 -0.90000000
 q=   0.50000000 -0.10000000 -0.90000000
 q=  -0.50000000 -0.10000000  0.90000000
 q=  -0.90000000 -0.10000000 -0.50000000
 q=   0.90000000 -0.10000000 -0.50000000
 q=  -0.90000000 -0.10000000  0.50000000
 q=  -0.50000000  0.10000000 -0.90000000
 q=  -0.50000000  0.10000000  0.90000000
 q=  -0.50000000 -0.10000000 -0.90000000
 q=   0.90000000 -0.10000000  0.50000000
 q=   0.90000000  0.10000000  0.50000000
 q=  -0.90000000  0.10000000  0.50000000
 q=   0.90000000  0.10000000 -0.50000000
 q=  -0.90000000  0.10000000 -0.50000000
 q=  -0.10000000  0.50000000 -0.90000000
 q=   0.90000000  0.50000000 -0.10000000
 q=  -0.90000000 -0.50000000 -0.10000000
 q=  -0.90000000  0.50000000  0.10000000
 q=   0.10000000 -0.50000000  0.90000000
 q=  -0.10000000  0.50000000  0.90000000
 q=   0.10000000  0.50000000 -0.90000000
 q=  -0.10000000 -0.50000000 -0.90000000
 q=  -0.50000000 -0.90000000 -0.10000000
  reading force constants from file sn.alpha.12.56.dyn47
  nqs=           12
 q=  -0.40000000 -1.00000000  0.00000000
 q=   0.40000000 -1.00000000  0.00000000
 q=   0.00000000 -1.00000000  0.40000000
 q=   0.00000000 -1.00000000 -0.40000000
 q=  -1.00000000  0.00000000 -0.40000000
 q=   1.00000000  0.00000000  0.40000000
 q=  -1.00000000 -0.40000000  0.00000000
 q=   0.00000000 -0.40000000 -1.00000000
 q=   0.00000000  0.40000000  1.00000000
 q=   1.00000000  0.40000000  0.00000000
 q=  -0.40000000  0.00000000  1.00000000
 q=   0.40000000 -0.00000000  1.00000000

      q-space grid ok, #points = 1000

      fft-check success (sum of imaginary terms < 10^-12)

     Q2R          :     0.12s CPU         0.13s WALL


   This run was terminated on:  10:15:27   1Dec2017            

=------------------------------------------------------------------------------=
   JOB DONE.
=------------------------------------------------------------------------------=
