
     Program MATDYN v.6.1 (svn rev. 13369) starts on 21Jan2018 at 19:23: 5 

     This program is part of the open-source Quantum ESPRESSO suite
     for quantum simulation of materials; please cite
         "P. Giannozzi et al., J. Phys.:Condens. Matter 21 395502 (2009);
          URL http://www.quantum-espresso.org", 
     in publications or presentations arising from this work. More details at
     http://www.quantum-espresso.org/quote

     Parallel version (MPI), running on     1 processors
 mass for atomic type   1 not given; uses mass from file sn.alpha.101010.12.56.fc                                                                                                                                                                                                                                        

     MATDYN       :    27.33s CPU        27.37s WALL


   This run was terminated on:  19:23:33  21Jan2018            

=------------------------------------------------------------------------------=
   JOB DONE.
=------------------------------------------------------------------------------=
