
     Program PWSCF v.6.1 (svn rev. 13369) starts on 11Nov2017 at 16:13:32 

     This program is part of the open-source Quantum ESPRESSO suite
     for quantum simulation of materials; please cite
         "P. Giannozzi et al., J. Phys.:Condens. Matter 21 395502 (2009);
          URL http://www.quantum-espresso.org", 
     in publications or presentations arising from this work. More details at
     http://www.quantum-espresso.org/quote

     Parallel version (MPI), running on     4 processors
     R & G space division:  proc/nbgrp/npool/nimage =       4
     Waiting for input...
     Reading input from standard input
     Message from routine read_cards :
     DEPRECATED: no units specified in ATOMIC_POSITIONS card
     Message from routine read_cards :
     ATOMIC_POSITIONS: units set to alat

     Current dimensions of program PWSCF are:
     Max number of different atomic species (ntypx) = 10
     Max number of k-points (npk) =  40000
     Max angular momentum in pseudopotentials (lmaxx) =  3

     Subspace diagonalization in iterative solution of the eigenvalue problem:
     a serial algorithm will be used


     Parallelization info
     --------------------
     sticks:   dense  smooth     PW     G-vecs:    dense   smooth      PW
     Min         552     274     84                16972     5993    1003
     Max         553     275     85                16973     5994    1005
     Sum        2209    1099    337                67889    23973    4015



     bravais-lattice index     =            2
     lattice parameter (alat)  =      12.6100  a.u.
     unit-cell volume          =     501.2856 (a.u.)^3
     number of atoms/cell      =            2
     number of atomic types    =            1
     number of electrons       =        28.00
     number of Kohn-Sham states=           14
     kinetic-energy cutoff     =      50.0000  Ry
     charge density cutoff     =     400.0000  Ry
     convergence threshold     =      1.0E-08
     mixing beta               =       0.7000
     number of iterations used =            8  plain     mixing
     Exchange-correlation      =  SLA  PW   PBX  PBC ( 1  4  3  4 0 0)

     celldm(1)=  12.610000  celldm(2)=   0.000000  celldm(3)=   0.000000
     celldm(4)=   0.000000  celldm(5)=   0.000000  celldm(6)=   0.000000

     crystal axes: (cart. coord. in units of alat)
               a(1) = (  -0.500000   0.000000   0.500000 )  
               a(2) = (   0.000000   0.500000   0.500000 )  
               a(3) = (  -0.500000   0.500000   0.000000 )  

     reciprocal axes: (cart. coord. in units 2 pi/alat)
               b(1) = ( -1.000000 -1.000000  1.000000 )  
               b(2) = (  1.000000  1.000000  1.000000 )  
               b(3) = ( -1.000000  1.000000 -1.000000 )  


     PseudoPot. # 1 for Sn read from file:
     /home/s1333534/quantum_espresso/qe-6.1/pseudo/sn_pbe_v1.4.uspp.F.UPF
     MD5 check sum: 469debedee59599fedebd795477fea03
     Pseudo is Ultrasoft + core correction, Zval = 14.0
     Generated by new atomic code, or converted to UPF format
     Using radial grid of  891 points,  6 beta functions with: 
                l(1) =   0
                l(2) =   0
                l(3) =   1
                l(4) =   1
                l(5) =   2
                l(6) =   2
     Q(r) pseudized with  8 coefficients,  rinner =    1.350   1.350   1.350
                                                       1.350   1.350

     atomic species   valence    mass     pseudopotential
        Sn            14.00   118.71000     Sn( 1.00)

     48 Sym. Ops., with inversion, found (24 have fractional translation)



   Cartesian axes

     site n.     atom                  positions (alat units)
         1           Sn  tau(   1) = (   0.0000000   0.0000000   0.0000000  )
         2           Sn  tau(   2) = (   0.2500000   0.2500000   0.2500000  )

     number of k points=    60
                       cart. coord. in units 2pi/alat
        k(    1) = (  -0.0625000   0.0625000   0.0625000), wk =   0.0078125
        k(    2) = (  -0.1875000   0.1875000  -0.0625000), wk =   0.0234375
        k(    3) = (  -0.3125000   0.3125000  -0.1875000), wk =   0.0234375
        k(    4) = (  -0.4375000   0.4375000  -0.3125000), wk =   0.0234375
        k(    5) = (   0.4375000  -0.4375000   0.5625000), wk =   0.0234375
        k(    6) = (   0.3125000  -0.3125000   0.4375000), wk =   0.0234375
        k(    7) = (   0.1875000  -0.1875000   0.3125000), wk =   0.0234375
        k(    8) = (   0.0625000  -0.0625000   0.1875000), wk =   0.0234375
        k(    9) = (  -0.0625000   0.3125000   0.0625000), wk =   0.0234375
        k(   10) = (  -0.1875000   0.4375000  -0.0625000), wk =   0.0468750
        k(   11) = (  -0.3125000   0.5625000  -0.1875000), wk =   0.0468750
        k(   12) = (   0.5625000  -0.3125000   0.6875000), wk =   0.0468750
        k(   13) = (   0.4375000  -0.1875000   0.5625000), wk =   0.0468750
        k(   14) = (   0.3125000  -0.0625000   0.4375000), wk =   0.0468750
        k(   15) = (   0.1875000   0.0625000   0.3125000), wk =   0.0468750
        k(   16) = (  -0.0625000   0.5625000   0.0625000), wk =   0.0234375
        k(   17) = (  -0.1875000   0.6875000  -0.0625000), wk =   0.0468750
        k(   18) = (   0.6875000  -0.1875000   0.8125000), wk =   0.0468750
        k(   19) = (   0.5625000  -0.0625000   0.6875000), wk =   0.0468750
        k(   20) = (   0.4375000   0.0625000   0.5625000), wk =   0.0468750
        k(   21) = (   0.3125000   0.1875000   0.4375000), wk =   0.0468750
        k(   22) = (  -0.0625000   0.8125000   0.0625000), wk =   0.0234375
        k(   23) = (   0.8125000  -0.0625000   0.9375000), wk =   0.0468750
        k(   24) = (   0.6875000   0.0625000   0.8125000), wk =   0.0468750
        k(   25) = (   0.5625000   0.1875000   0.6875000), wk =   0.0468750
        k(   26) = (   0.4375000   0.3125000   0.5625000), wk =   0.0468750
        k(   27) = (  -0.0625000  -0.9375000   0.0625000), wk =   0.0234375
        k(   28) = (  -0.1875000  -0.8125000  -0.0625000), wk =   0.0468750
        k(   29) = (  -0.3125000  -0.6875000  -0.1875000), wk =   0.0468750
        k(   30) = (  -0.0625000  -0.6875000   0.0625000), wk =   0.0234375
        k(   31) = (  -0.1875000  -0.5625000  -0.0625000), wk =   0.0468750
        k(   32) = (  -0.0625000  -0.4375000   0.0625000), wk =   0.0234375
        k(   33) = (  -0.1875000   0.1875000   0.1875000), wk =   0.0078125
        k(   34) = (  -0.3125000   0.3125000   0.0625000), wk =   0.0234375
        k(   35) = (  -0.4375000   0.4375000  -0.0625000), wk =   0.0234375
        k(   36) = (   0.4375000  -0.4375000   0.8125000), wk =   0.0234375
        k(   37) = (   0.3125000  -0.3125000   0.6875000), wk =   0.0234375
        k(   38) = (   0.1875000  -0.1875000   0.5625000), wk =   0.0234375
        k(   39) = (  -0.1875000   0.4375000   0.1875000), wk =   0.0234375
        k(   40) = (  -0.3125000   0.5625000   0.0625000), wk =   0.0468750
        k(   41) = (   0.5625000  -0.3125000   0.9375000), wk =   0.0468750
        k(   42) = (   0.4375000  -0.1875000   0.8125000), wk =   0.0468750
        k(   43) = (   0.3125000  -0.0625000   0.6875000), wk =   0.0468750
        k(   44) = (  -0.1875000   0.6875000   0.1875000), wk =   0.0234375
        k(   45) = (   0.6875000  -0.1875000   1.0625000), wk =   0.0468750
        k(   46) = (   0.5625000  -0.0625000   0.9375000), wk =   0.0468750
        k(   47) = (   0.4375000   0.0625000   0.8125000), wk =   0.0468750
        k(   48) = (  -0.1875000  -1.0625000   0.1875000), wk =   0.0234375
        k(   49) = (  -0.3125000  -0.9375000   0.0625000), wk =   0.0468750
        k(   50) = (  -0.1875000  -0.8125000   0.1875000), wk =   0.0234375
        k(   51) = (  -0.3125000   0.3125000   0.3125000), wk =   0.0078125
        k(   52) = (  -0.4375000   0.4375000   0.1875000), wk =   0.0234375
        k(   53) = (   0.4375000  -0.4375000   1.0625000), wk =   0.0234375
        k(   54) = (   0.3125000  -0.3125000   0.9375000), wk =   0.0234375
        k(   55) = (  -0.3125000   0.5625000   0.3125000), wk =   0.0234375
        k(   56) = (   0.5625000  -0.3125000   1.1875000), wk =   0.0468750
        k(   57) = (   0.4375000  -0.1875000   1.0625000), wk =   0.0468750
        k(   58) = (  -0.3125000  -1.1875000   0.3125000), wk =   0.0234375
        k(   59) = (  -0.4375000   0.4375000   0.4375000), wk =   0.0078125
        k(   60) = (   0.4375000  -0.4375000   1.3125000), wk =   0.0234375

     Dense  grid:    67889 G-vectors     FFT dimensions: (  60,  60,  60)

     Smooth grid:    23973 G-vectors     FFT dimensions: (  45,  45,  45)

     Estimated max dynamical RAM per process >      21.96MB

     Estimated total allocated dynamical RAM >      87.85MB

     Initial potential from superposition of free atoms

     starting charge   25.99991, renormalised to   28.00000
     Starting wfc are   18 randomized atomic wfcs

     total cpu time spent up to now is        1.6 secs

     per-process dynamical memory:    25.9 Mb

     Self-consistent Calculation

     iteration #  1     ecut=    50.00 Ry     beta=0.70
     Davidson diagonalization with overlap
     ethr =  1.00E-02,  avg # of iterations =  2.6

     total cpu time spent up to now is        4.9 secs

     total energy              =    -317.48384794 Ry
     Harris-Foulkes estimate   =    -319.55051723 Ry
     estimated scf accuracy    <       2.51790586 Ry

     iteration #  2     ecut=    50.00 Ry     beta=0.70
     Davidson diagonalization with overlap
     ethr =  8.99E-03,  avg # of iterations =  3.0

     total cpu time spent up to now is        8.6 secs

     total energy              =    -318.39356879 Ry
     Harris-Foulkes estimate   =    -318.71210401 Ry
     estimated scf accuracy    <       0.47406825 Ry

     iteration #  3     ecut=    50.00 Ry     beta=0.70
     Davidson diagonalization with overlap
     ethr =  1.69E-03,  avg # of iterations =  2.0

     total cpu time spent up to now is       11.8 secs

     total energy              =    -318.48877945 Ry
     Harris-Foulkes estimate   =    -318.49034733 Ry
     estimated scf accuracy    <       0.00287603 Ry

     iteration #  4     ecut=    50.00 Ry     beta=0.70
     Davidson diagonalization with overlap
     ethr =  1.03E-05,  avg # of iterations =  3.0

     total cpu time spent up to now is       15.2 secs

     total energy              =    -318.48966163 Ry
     Harris-Foulkes estimate   =    -318.48977881 Ry
     estimated scf accuracy    <       0.00017350 Ry

     iteration #  5     ecut=    50.00 Ry     beta=0.70
     Davidson diagonalization with overlap
     ethr =  6.20E-07,  avg # of iterations =  3.0

     total cpu time spent up to now is       18.7 secs

     total energy              =    -318.48971513 Ry
     Harris-Foulkes estimate   =    -318.48971590 Ry
     estimated scf accuracy    <       0.00000156 Ry

     iteration #  6     ecut=    50.00 Ry     beta=0.70
     Davidson diagonalization with overlap
     ethr =  5.56E-09,  avg # of iterations =  3.9

     total cpu time spent up to now is       22.3 secs

     total energy              =    -318.48971592 Ry
     Harris-Foulkes estimate   =    -318.48971596 Ry
     estimated scf accuracy    <       0.00000007 Ry

     iteration #  7     ecut=    50.00 Ry     beta=0.70
     Davidson diagonalization with overlap
     ethr =  2.40E-10,  avg # of iterations =  3.1

     total cpu time spent up to now is       25.9 secs

     End of self-consistent calculation

          k =-0.0625 0.0625 0.0625 (  2975 PWs)   bands (ev):

   -14.7251 -14.7251 -14.7215 -14.6709 -14.6709 -14.4378 -14.4378 -14.4285
   -14.4171 -14.4171  -3.2092   5.2304   6.8435   6.8435

          k =-0.1875 0.1875-0.0625 (  2985 PWs)   bands (ev):

   -14.7367 -14.7317 -14.7179 -14.6607 -14.6543 -14.4604 -14.4514 -14.4264
   -14.4117 -14.3998  -3.0261   4.0881   6.1739   6.7076

          k =-0.3125 0.3125-0.1875 (  2976 PWs)   bands (ev):

   -14.7475 -14.7442 -14.7073 -14.6432 -14.6341 -14.4781 -14.4667 -14.4415
   -14.3952 -14.3879  -2.5910   2.5464   5.6844   6.2910

          k =-0.4375 0.4375-0.3125 (  2985 PWs)   bands (ev):

   -14.7526 -14.7522 -14.6972 -14.6308 -14.6236 -14.4854 -14.4764 -14.4564
   -14.3848 -14.3834  -2.0180   1.2644   5.4394   5.9369

          k = 0.4375-0.4375 0.5625 (  2984 PWs)   bands (ev):

   -14.7557 -14.7520 -14.6940 -14.6249 -14.6240 -14.4844 -14.4821 -14.4594
   -14.3845 -14.3805  -1.7649   0.8276   5.4380   5.7659

          k = 0.3125-0.3125 0.4375 (  2984 PWs)   bands (ev):

   -14.7534 -14.7476 -14.7013 -14.6340 -14.6254 -14.4873 -14.4725 -14.4497
   -14.3900 -14.3826  -2.2072   1.6342   5.6647   5.8153

          k = 0.1875-0.1875 0.3125 (  2973 PWs)   bands (ev):

   -14.7448 -14.7392 -14.7125 -14.6493 -14.6385 -14.4779 -14.4577 -14.4352
   -14.4001 -14.3916  -2.7599   3.0542   6.0775   6.0824

          k = 0.0625-0.0625 0.1875 (  2987 PWs)   bands (ev):

   -14.7309 -14.7279 -14.7219 -14.6671 -14.6594 -14.4583 -14.4386 -14.4253
   -14.4167 -14.4062  -3.1169   4.5900   6.5040   6.5349

          k =-0.0625 0.3125 0.0625 (  2966 PWs)   bands (ev):

   -14.7367 -14.7333 -14.7231 -14.6586 -14.6388 -14.4841 -14.4441 -14.4183
   -14.4110 -14.3995  -2.9332   3.7998   6.0395   6.0556

          k =-0.1875 0.4375-0.0625 (  2977 PWs)   bands (ev):

   -14.7495 -14.7445 -14.7110 -14.6429 -14.6161 -14.5085 -14.4604 -14.4290
   -14.3969 -14.3867  -2.5768   2.7097   5.2791   5.8191

          k =-0.3125 0.5625-0.1875 (  2993 PWs)   bands (ev):

   -14.7635 -14.7532 -14.6897 -14.6258 -14.6027 -14.5192 -14.4785 -14.4542
   -14.3842 -14.3726  -2.0226   1.4884   4.7747   5.5236

          k = 0.5625-0.3125 0.6875 (  2997 PWs)   bands (ev):

   -14.7696 -14.7575 -14.6746 -14.6129 -14.6059 -14.5105 -14.4953 -14.4718
   -14.3781 -14.3660  -1.5728   0.7397   4.5151   5.4579

          k = 0.4375-0.1875 0.5625 (  2996 PWs)   bands (ev):

   -14.7661 -14.7576 -14.6780 -14.6236 -14.6045 -14.5097 -14.4829 -14.4726
   -14.3778 -14.3704  -1.8370   1.1591   4.5203   5.6618

          k = 0.3125-0.0625 0.4375 (  2984 PWs)   bands (ev):

   -14.7543 -14.7518 -14.6968 -14.6390 -14.6159 -14.5021 -14.4689 -14.4473
   -14.3880 -14.3810  -2.4133   2.2853   4.8755   6.0436

          k = 0.1875 0.0625 0.3125 (  2975 PWs)   bands (ev):

   -14.7429 -14.7373 -14.7148 -14.6537 -14.6381 -14.4812 -14.4537 -14.4272
   -14.4060 -14.3927  -2.8453   3.4196   5.7191   6.3319

          k =-0.0625 0.5625 0.0625 (  2986 PWs)   bands (ev):

   -14.7515 -14.7487 -14.7148 -14.6284 -14.5867 -14.5446 -14.4724 -14.4190
   -14.3910 -14.3872  -2.2989   2.1760   5.1629   5.2501

          k =-0.1875 0.6875-0.0625 (  2991 PWs)   bands (ev):

   -14.7634 -14.7583 -14.6916 -14.6083 -14.5693 -14.5628 -14.4928 -14.4447
   -14.3782 -14.3725  -1.7913   1.2794   4.6061   4.9920

          k = 0.6875-0.1875 0.8125 (  2996 PWs)   bands (ev):

   -14.7773 -14.7630 -14.6622 -14.5890 -14.5725 -14.5574 -14.5152 -14.4750
   -14.3716 -14.3572  -1.2263   0.4911   4.0370   4.9615

          k = 0.5625-0.0625 0.6875 (  2998 PWs)   bands (ev):

   -14.7798 -14.7642 -14.6541 -14.5937 -14.5763 -14.5411 -14.5226 -14.4844
   -14.3697 -14.3549  -1.2900   0.5721   3.8275   5.2109

          k = 0.4375 0.0625 0.5625 (  2998 PWs)   bands (ev):

   -14.7689 -14.7603 -14.6714 -14.6229 -14.5951 -14.5201 -14.4843 -14.4783
   -14.3739 -14.3681  -1.8645   1.3204   4.2017   5.6386

          k = 0.3125 0.1875 0.4375 (  2984 PWs)   bands (ev):

   -14.7546 -14.7485 -14.6996 -14.6372 -14.6205 -14.4958 -14.4694 -14.4475
   -14.3903 -14.3814  -2.3429   2.0130   5.2332   5.9512

          k =-0.0625 0.8125 0.0625 (  2992 PWs)   bands (ev):

   -14.7633 -14.7609 -14.6851 -14.6073 -14.5858 -14.5282 -14.5140 -14.4499
   -14.3740 -14.3715  -1.3325   0.6323   4.6381   4.7615

          k = 0.8125-0.0625 0.9375 (  2990 PWs)   bands (ev):

   -14.7712 -14.7660 -14.6542 -14.6252 -14.5626 -14.5381 -14.5099 -14.4813
   -14.3676 -14.3624  -0.7211  -0.0773   4.3011   4.6153

          k = 0.6875 0.0625 0.8125 (  3005 PWs)   bands (ev):

   -14.7805 -14.7658 -14.6501 -14.5865 -14.5683 -14.5463 -14.5358 -14.4858
   -14.3681 -14.3536  -0.8527   0.0863   3.8649   4.8506

          k = 0.5625 0.1875 0.6875 (  3000 PWs)   bands (ev):

   -14.7763 -14.7617 -14.6622 -14.6015 -14.5909 -14.5275 -14.5104 -14.4794
   -14.3730 -14.3588  -1.3911   0.6175   4.0815   5.2935

          k = 0.4375 0.3125 0.5625 (  2994 PWs)   bands (ev):

   -14.7612 -14.7537 -14.6875 -14.6245 -14.6163 -14.4953 -14.4823 -14.4643
   -14.3825 -14.3753  -1.7958   0.9576   5.0127   5.7015

          k =-0.0625-0.9375 0.0625 (  2990 PWs)   bands (ev):

   -14.7662 -14.7638 -14.6630 -14.6363 -14.5620 -14.5377 -14.4995 -14.4727
   -14.3698 -14.3675  -0.7389  -0.0792   4.5308   4.6612

          k =-0.1875-0.8125-0.0625 (  2991 PWs)   bands (ev):

   -14.7686 -14.7633 -14.6746 -14.5982 -14.5862 -14.5359 -14.5146 -14.4610
   -14.3715 -14.3660  -1.2862   0.5842   4.4039   4.7418

          k =-0.3125-0.6875-0.1875 (  2998 PWs)   bands (ev):

   -14.7714 -14.7583 -14.6771 -14.6091 -14.5833 -14.5435 -14.4949 -14.4633
   -14.3775 -14.3640  -1.6424   0.9789   4.3564   5.1855

          k =-0.0625-0.6875 0.0625 (  2989 PWs)   bands (ev):

   -14.7582 -14.7558 -14.7026 -14.6083 -14.5763 -14.5574 -14.4919 -14.4314
   -14.3812 -14.3785  -1.8548   1.3879   4.8505   4.9597

          k =-0.1875-0.5625-0.0625 (  2986 PWs)   bands (ev):

   -14.7567 -14.7518 -14.7036 -14.6276 -14.5908 -14.5381 -14.4742 -14.4339
   -14.3869 -14.3801  -2.2238   1.9918   4.9014   5.3574

          k =-0.0625-0.4375 0.0625 (  2974 PWs)   bands (ev):

   -14.7437 -14.7408 -14.7216 -14.6455 -14.6143 -14.5131 -14.4560 -14.4141
   -14.4016 -14.3947  -2.6596   2.9849   5.5658   5.6222

          k =-0.1875 0.1875 0.1875 (  2972 PWs)   bands (ev):

   -14.7371 -14.7371 -14.7152 -14.6532 -14.6532 -14.4583 -14.4583 -14.4349
   -14.4006 -14.4006  -2.9369   3.6480   6.4524   6.4524

          k =-0.3125 0.3125 0.0625 (  2984 PWs)   bands (ev):

   -14.7484 -14.7445 -14.7057 -14.6471 -14.6314 -14.4825 -14.4663 -14.4369
   -14.3981 -14.3863  -2.6710   2.8760   5.2861   6.4204

          k =-0.4375 0.4375-0.0625 (  2991 PWs)   bands (ev):

   -14.7612 -14.7570 -14.6829 -14.6335 -14.6089 -14.5031 -14.4768 -14.4660
   -14.3776 -14.3772  -2.1735   1.8079   4.4984   6.0077

          k = 0.4375-0.4375 0.8125 (  3000 PWs)   bands (ev):

   -14.7715 -14.7593 -14.6692 -14.6148 -14.6008 -14.5078 -14.5012 -14.4780
   -14.3753 -14.3648  -1.6169   0.8592   4.2720   5.5922

          k = 0.3125-0.3125 0.6875 (  2996 PWs)   bands (ev):

   -14.7713 -14.7565 -14.6773 -14.6101 -14.5972 -14.5260 -14.4948 -14.4654
   -14.3795 -14.3640  -1.6026   0.8366   4.4476   5.3586

          k = 0.1875-0.1875 0.5625 (  2988 PWs)   bands (ev):

   -14.7610 -14.7500 -14.6994 -14.6268 -14.5962 -14.5307 -14.4756 -14.4399
   -14.3888 -14.3753  -2.1551   1.7946   4.9288   5.3682

          k =-0.1875 0.4375 0.1875 (  2978 PWs)   bands (ev):

   -14.7528 -14.7438 -14.7079 -14.6406 -14.6188 -14.5031 -14.4631 -14.4350
   -14.3962 -14.3836  -2.4978   2.4266   5.4767   5.7037

          k =-0.3125 0.5625 0.0625 (  2992 PWs)   bands (ev):

   -14.7621 -14.7573 -14.6872 -14.6264 -14.5952 -14.5282 -14.4778 -14.4558
   -14.3791 -14.3746  -2.0769   1.6846   4.5368   5.5264

          k = 0.5625-0.3125 0.9375 (  3009 PWs)   bands (ev):

   -14.7751 -14.7648 -14.6599 -14.6065 -14.5768 -14.5446 -14.5030 -14.4823
   -14.3696 -14.3606  -1.4970   0.8373   4.0116   5.1433

          k = 0.4375-0.1875 0.8125 (  3003 PWs)   bands (ev):

   -14.7784 -14.7657 -14.6533 -14.5933 -14.5730 -14.5511 -14.5164 -14.4853
   -14.3687 -14.3561  -1.1994   0.4495   3.9734   4.9323

          k = 0.3125-0.0625 0.6875 (  2998 PWs)   bands (ev):

   -14.7690 -14.7627 -14.6749 -14.6087 -14.5721 -14.5558 -14.4951 -14.4647
   -14.3726 -14.3667  -1.6689   1.0845   4.2913   5.0504

          k =-0.1875 0.6875 0.1875 (  2992 PWs)   bands (ev):

   -14.7683 -14.7563 -14.6870 -14.6083 -14.5732 -14.5574 -14.4935 -14.4503
   -14.3802 -14.3673  -1.7390   1.1651   4.4891   5.1016

          k = 0.6875-0.1875 1.0625 (  3000 PWs)   bands (ev):

   -14.7739 -14.7676 -14.6586 -14.5879 -14.5837 -14.5470 -14.5165 -14.4782
   -14.3669 -14.3605  -1.2002   0.4912   4.1469   4.6844

          k = 0.5625-0.0625 0.9375 (  3010 PWs)   bands (ev):

   -14.7790 -14.7738 -14.6276 -14.5943 -14.5676 -14.5436 -14.5344 -14.5060
   -14.3600 -14.3548  -0.6753  -0.0750   3.9774   4.3691

          k = 0.4375 0.0625 0.8125 (  3008 PWs)   bands (ev):

   -14.7783 -14.7698 -14.6448 -14.5876 -14.5708 -14.5552 -14.5224 -14.4923
   -14.3643 -14.3561  -1.0872   0.3637   3.9413   4.6868

          k =-0.1875-1.0625 0.1875 (  2997 PWs)   bands (ev):

   -14.7768 -14.7640 -14.6554 -14.6081 -14.5643 -14.5372 -14.5263 -14.4807
   -14.3697 -14.3569  -0.7674  -0.0190   4.0294   4.8243

          k =-0.3125-0.9375 0.0625 (  2996 PWs)   bands (ev):

   -14.7762 -14.7704 -14.6400 -14.6083 -14.5646 -14.5396 -14.5247 -14.4949
   -14.3631 -14.3575  -0.6948  -0.0755   4.0934   4.4750

          k =-0.1875-0.8125 0.1875 (  2993 PWs)   bands (ev):

   -14.7738 -14.7612 -14.6709 -14.5872 -14.5868 -14.5458 -14.5148 -14.4654
   -14.3735 -14.3606  -1.2622   0.5468   4.1845   4.9179

          k =-0.3125 0.3125 0.3125 (  2986 PWs)   bands (ev):

   -14.7467 -14.7467 -14.7070 -14.6363 -14.6363 -14.4731 -14.4731 -14.4460
   -14.3903 -14.3903  -2.4341   2.0931   6.0717   6.0717

          k =-0.4375 0.4375 0.1875 (  2995 PWs)   bands (ev):

   -14.7579 -14.7553 -14.6889 -14.6327 -14.6155 -14.4955 -14.4755 -14.4628
   -14.3807 -14.3799  -2.1187   1.5757   4.8713   5.9854

          k = 0.4375-0.4375 1.0625 (  3001 PWs)   bands (ev):

   -14.7755 -14.7617 -14.6615 -14.6114 -14.5888 -14.5202 -14.5091 -14.4817
   -14.3721 -14.3605  -1.5972   0.9424   3.9549   5.5493

          k = 0.3125-0.3125 0.9375 (  3004 PWs)   bands (ev):

   -14.7819 -14.7636 -14.6544 -14.5733 -14.5720 -14.5586 -14.5318 -14.4827
   -14.3702 -14.3526  -1.0668   0.3148   3.7732   5.1332

          k =-0.3125 0.5625 0.3125 (  2993 PWs)   bands (ev):

   -14.7626 -14.7514 -14.6908 -14.6252 -14.6121 -14.5060 -14.4801 -14.4560
   -14.3858 -14.3734  -1.9227   1.2110   5.0252   5.5671

          k = 0.5625-0.3125 1.1875 (  3003 PWs)   bands (ev):

   -14.7736 -14.7614 -14.6664 -14.6091 -14.5898 -14.5302 -14.4992 -14.4773
   -14.3736 -14.3619  -1.5181   0.7794   4.2128   5.2534

          k = 0.4375-0.1875 1.0625 (  2999 PWs)   bands (ev):

   -14.7809 -14.7685 -14.6429 -14.5800 -14.5679 -14.5570 -14.5319 -14.4927
   -14.3653 -14.3531  -0.9649   0.2211   3.8373   4.7637

          k =-0.3125-1.1875 0.3125 (  2992 PWs)   bands (ev):

   -14.7780 -14.7609 -14.6636 -14.5912 -14.5830 -14.5445 -14.5136 -14.4754
   -14.3735 -14.3565  -1.2887   0.5224   4.0105   5.2101

          k =-0.4375 0.4375 0.4375 (  2983 PWs)   bands (ev):

   -14.7507 -14.7507 -14.7008 -14.6277 -14.6277 -14.4796 -14.4796 -14.4537
   -14.3858 -14.3858  -1.8906   0.9936   5.8609   5.8609

          k = 0.4375-0.4375 1.3125 (  2993 PWs)   bands (ev):

   -14.7642 -14.7556 -14.6816 -14.6196 -14.6147 -14.4931 -14.4915 -14.4699
   -14.3800 -14.3721  -1.6697   0.7917   4.8068   5.6696

     highest occupied level (ev):     6.8435

!    total energy              =    -318.48971595 Ry
     Harris-Foulkes estimate   =    -318.48971595 Ry
     estimated scf accuracy    <          2.6E-09 Ry

     The total energy is the sum of the following terms:

     one-electron contribution =    -162.97599328 Ry
     hartree contribution      =      97.89688887 Ry
     xc contribution           =     -85.95424093 Ry
     ewald contribution        =    -167.45637060 Ry

     convergence has been achieved in   7 iterations

     Writing output data file sn.alpha.12.61.save

     init_run     :      1.54s CPU      1.58s WALL (       1 calls)
     electrons    :     23.66s CPU     24.36s WALL (       1 calls)

     Called by init_run:
     wfcinit      :      1.05s CPU      1.07s WALL (       1 calls)
     potinit      :      0.06s CPU      0.06s WALL (       1 calls)

     Called by electrons:
     c_bands      :     19.20s CPU     19.56s WALL (       7 calls)
     sum_band     :      3.64s CPU      3.77s WALL (       7 calls)
     v_of_rho     :      0.37s CPU      0.38s WALL (       8 calls)
     newd         :      0.51s CPU      0.59s WALL (       8 calls)
     mix_rho      :      0.03s CPU      0.03s WALL (       7 calls)

     Called by c_bands:
     init_us_2    :      0.40s CPU      0.40s WALL (     900 calls)
     cegterg      :     18.48s CPU     18.84s WALL (     420 calls)

     Called by sum_band:
     sum_band:bec :      0.00s CPU      0.00s WALL (     420 calls)
     addusdens    :      0.56s CPU      0.65s WALL (       7 calls)

     Called by *egterg:
     h_psi        :     16.93s CPU     17.29s WALL (    1715 calls)
     s_psi        :      0.22s CPU      0.22s WALL (    1715 calls)
     g_psi        :      0.08s CPU      0.08s WALL (    1235 calls)
     cdiaghg      :      0.72s CPU      0.72s WALL (    1655 calls)

     Called by h_psi:
     h_psi:pot    :     16.83s CPU     17.18s WALL (    1715 calls)
     h_psi:calbec :      0.49s CPU      0.50s WALL (    1715 calls)
     vloc_psi     :     16.06s CPU     16.39s WALL (    1715 calls)
     add_vuspsi   :      0.27s CPU      0.28s WALL (    1715 calls)

     General routines
     calbec       :      0.61s CPU      0.62s WALL (    2135 calls)
     fft          :      0.17s CPU      0.18s WALL (     124 calls)
     ffts         :      0.01s CPU      0.01s WALL (      15 calls)
     fftw         :     15.90s CPU     16.24s WALL (   45616 calls)
     interpolate  :      0.04s CPU      0.04s WALL (      15 calls)
     davcio       :      0.00s CPU      0.00s WALL (      60 calls)

     Parallel routines
     fft_scatter  :      2.05s CPU      2.02s WALL (   45755 calls)

     PWSCF        :    25.36s CPU        27.22s WALL


   This run was terminated on:  16:13:59  11Nov2017            

=------------------------------------------------------------------------------=
   JOB DONE.
=------------------------------------------------------------------------------=
