
     Program PWSCF v.6.1 (svn rev. 13369) starts on 11Nov2017 at 16:42:18 

     This program is part of the open-source Quantum ESPRESSO suite
     for quantum simulation of materials; please cite
         "P. Giannozzi et al., J. Phys.:Condens. Matter 21 395502 (2009);
          URL http://www.quantum-espresso.org", 
     in publications or presentations arising from this work. More details at
     http://www.quantum-espresso.org/quote

     Parallel version (MPI), running on     4 processors
     R & G space division:  proc/nbgrp/npool/nimage =       4
     Waiting for input...
     Reading input from standard input
     Message from routine read_cards :
     DEPRECATED: no units specified in ATOMIC_POSITIONS card
     Message from routine read_cards :
     ATOMIC_POSITIONS: units set to alat

     Current dimensions of program PWSCF are:
     Max number of different atomic species (ntypx) = 10
     Max number of k-points (npk) =  40000
     Max angular momentum in pseudopotentials (lmaxx) =  3

     Subspace diagonalization in iterative solution of the eigenvalue problem:
     a serial algorithm will be used


     Parallelization info
     --------------------
     sticks:   dense  smooth     PW     G-vecs:    dense   smooth      PW
     Min         543     268     84                16737     5896    1003
     Max         544     269     85                16740     5899    1005
     Sum        2173    1075    337                66953    23589    4015



     bravais-lattice index     =            2
     lattice parameter (alat)  =      12.5760  a.u.
     unit-cell volume          =     497.2418 (a.u.)^3
     number of atoms/cell      =            2
     number of atomic types    =            1
     number of electrons       =        28.00
     number of Kohn-Sham states=           14
     kinetic-energy cutoff     =      50.0000  Ry
     charge density cutoff     =     400.0000  Ry
     convergence threshold     =      1.0E-08
     mixing beta               =       0.7000
     number of iterations used =            8  plain     mixing
     Exchange-correlation      =  SLA  PW   PBX  PBC ( 1  4  3  4 0 0)

     celldm(1)=  12.576000  celldm(2)=   0.000000  celldm(3)=   0.000000
     celldm(4)=   0.000000  celldm(5)=   0.000000  celldm(6)=   0.000000

     crystal axes: (cart. coord. in units of alat)
               a(1) = (  -0.500000   0.000000   0.500000 )  
               a(2) = (   0.000000   0.500000   0.500000 )  
               a(3) = (  -0.500000   0.500000   0.000000 )  

     reciprocal axes: (cart. coord. in units 2 pi/alat)
               b(1) = ( -1.000000 -1.000000  1.000000 )  
               b(2) = (  1.000000  1.000000  1.000000 )  
               b(3) = ( -1.000000  1.000000 -1.000000 )  


     PseudoPot. # 1 for Sn read from file:
     /home/s1333534/quantum_espresso/qe-6.1/pseudo/sn_pbe_v1.4.uspp.F.UPF
     MD5 check sum: 469debedee59599fedebd795477fea03
     Pseudo is Ultrasoft + core correction, Zval = 14.0
     Generated by new atomic code, or converted to UPF format
     Using radial grid of  891 points,  6 beta functions with: 
                l(1) =   0
                l(2) =   0
                l(3) =   1
                l(4) =   1
                l(5) =   2
                l(6) =   2
     Q(r) pseudized with  8 coefficients,  rinner =    1.350   1.350   1.350
                                                       1.350   1.350

     atomic species   valence    mass     pseudopotential
        Sn            14.00   118.71000     Sn( 1.00)

     48 Sym. Ops., with inversion, found (24 have fractional translation)



   Cartesian axes

     site n.     atom                  positions (alat units)
         1           Sn  tau(   1) = (   0.0000000   0.0000000   0.0000000  )
         2           Sn  tau(   2) = (   0.2500000   0.2500000   0.2500000  )

     number of k points=   182

     Number of k-points >= 100: set verbosity='high' to print them.

     Dense  grid:    66953 G-vectors     FFT dimensions: (  60,  60,  60)

     Smooth grid:    23589 G-vectors     FFT dimensions: (  45,  45,  45)

     Estimated max dynamical RAM per process >      41.12MB

     Estimated total allocated dynamical RAM >     164.47MB

     Initial potential from superposition of free atoms

     starting charge   25.99991, renormalised to   28.00000
     Starting wfc are   18 randomized atomic wfcs

     total cpu time spent up to now is        4.2 secs

     per-process dynamical memory:    46.1 Mb

     Self-consistent Calculation

     iteration #  1     ecut=    50.00 Ry     beta=0.70
     Davidson diagonalization with overlap
     ethr =  1.00E-02,  avg # of iterations =  2.6

     total cpu time spent up to now is       14.0 secs

     total energy              =    -317.48497622 Ry
     Harris-Foulkes estimate   =    -319.54911294 Ry
     estimated scf accuracy    <       2.51486511 Ry

     iteration #  2     ecut=    50.00 Ry     beta=0.70
     Davidson diagonalization with overlap
     ethr =  8.98E-03,  avg # of iterations =  3.0

     total cpu time spent up to now is       24.9 secs

     total energy              =    -318.39375985 Ry
     Harris-Foulkes estimate   =    -318.71197824 Ry
     estimated scf accuracy    <       0.47374753 Ry

     iteration #  3     ecut=    50.00 Ry     beta=0.70
     Davidson diagonalization with overlap
     ethr =  1.69E-03,  avg # of iterations =  2.0

     total cpu time spent up to now is       34.4 secs

     total energy              =    -318.48886799 Ry
     Harris-Foulkes estimate   =    -318.49043860 Ry
     estimated scf accuracy    <       0.00287891 Ry

     iteration #  4     ecut=    50.00 Ry     beta=0.70
     Davidson diagonalization with overlap
     ethr =  1.03E-05,  avg # of iterations =  3.0

     total cpu time spent up to now is       44.5 secs

     total energy              =    -318.48975628 Ry
     Harris-Foulkes estimate   =    -318.48987293 Ry
     estimated scf accuracy    <       0.00017284 Ry

     iteration #  5     ecut=    50.00 Ry     beta=0.70
     Davidson diagonalization with overlap
     ethr =  6.17E-07,  avg # of iterations =  3.0

     total cpu time spent up to now is       54.9 secs

     total energy              =    -318.48980914 Ry
     Harris-Foulkes estimate   =    -318.48980980 Ry
     estimated scf accuracy    <       0.00000141 Ry

     iteration #  6     ecut=    50.00 Ry     beta=0.70
     Davidson diagonalization with overlap
     ethr =  5.02E-09,  avg # of iterations =  4.0

     total cpu time spent up to now is       66.5 secs

     total energy              =    -318.48980989 Ry
     Harris-Foulkes estimate   =    -318.48980994 Ry
     estimated scf accuracy    <       0.00000008 Ry

     iteration #  7     ecut=    50.00 Ry     beta=0.70
     Davidson diagonalization with overlap
     ethr =  2.77E-10,  avg # of iterations =  3.1

     total cpu time spent up to now is       77.0 secs

     End of self-consistent calculation

     Number of k-points >= 100: set verbosity='high' to print the bands.

     highest occupied level (ev):     6.9764

!    total energy              =    -318.48980993 Ry
     Harris-Foulkes estimate   =    -318.48980993 Ry
     estimated scf accuracy    <          2.4E-09 Ry

     The total energy is the sum of the following terms:

     one-electron contribution =    -162.23478833 Ry
     hartree contribution      =      97.61571608 Ry
     xc contribution           =     -85.96163833 Ry
     ewald contribution        =    -167.90909934 Ry

     convergence has been achieved in   7 iterations

     Writing output data file sn.alpha.12.576.save

     init_run     :      3.79s CPU      4.10s WALL (       1 calls)
     electrons    :     70.77s CPU     72.82s WALL (       1 calls)

     Called by init_run:
     wfcinit      :      3.31s CPU      3.59s WALL (       1 calls)
     potinit      :      0.05s CPU      0.07s WALL (       1 calls)

     Called by electrons:
     c_bands      :     60.39s CPU     62.03s WALL (       7 calls)
     sum_band     :      9.54s CPU      9.84s WALL (       7 calls)
     v_of_rho     :      0.36s CPU      0.38s WALL (       8 calls)
     newd         :      0.53s CPU      0.58s WALL (       8 calls)
     mix_rho      :      0.03s CPU      0.03s WALL (       7 calls)

     Called by c_bands:
     init_us_2    :      1.15s CPU      1.17s WALL (    2730 calls)
     cegterg      :     58.15s CPU     59.77s WALL (    1274 calls)

     Called by sum_band:
     sum_band:bec :      0.01s CPU      0.01s WALL (    1274 calls)
     addusdens    :      0.53s CPU      0.64s WALL (       7 calls)

     Called by *egterg:
     h_psi        :     53.25s CPU     54.81s WALL (    5224 calls)
     s_psi        :      0.79s CPU      0.80s WALL (    5224 calls)
     g_psi        :      0.23s CPU      0.24s WALL (    3768 calls)
     cdiaghg      :      2.22s CPU      2.24s WALL (    5042 calls)

     Called by h_psi:
     h_psi:pot    :     52.80s CPU     54.35s WALL (    5224 calls)
     h_psi:calbec :      1.55s CPU      1.60s WALL (    5224 calls)
     vloc_psi     :     50.13s CPU     51.59s WALL (    5224 calls)
     add_vuspsi   :      1.12s CPU      1.14s WALL (    5224 calls)

     General routines
     calbec       :      1.88s CPU      1.93s WALL (    6498 calls)
     fft          :      0.17s CPU      0.18s WALL (     124 calls)
     ffts         :      0.01s CPU      0.01s WALL (      15 calls)
     fftw         :     48.67s CPU     50.04s WALL (  138254 calls)
     interpolate  :      0.03s CPU      0.04s WALL (      15 calls)
     davcio       :      0.00s CPU      0.01s WALL (     182 calls)

     Parallel routines
     fft_scatter  :      6.42s CPU      6.53s WALL (  138393 calls)

     PWSCF        :  1m14.88s CPU     1m20.37s WALL


   This run was terminated on:  16:43:39  11Nov2017            

=------------------------------------------------------------------------------=
   JOB DONE.
=------------------------------------------------------------------------------=
