
     Program PWSCF v.6.1 (svn rev. 13369) starts on 13Nov2017 at  2: 3:46 

     This program is part of the open-source Quantum ESPRESSO suite
     for quantum simulation of materials; please cite
         "P. Giannozzi et al., J. Phys.:Condens. Matter 21 395502 (2009);
          URL http://www.quantum-espresso.org", 
     in publications or presentations arising from this work. More details at
     http://www.quantum-espresso.org/quote

     Parallel version (MPI), running on     4 processors
     R & G space division:  proc/nbgrp/npool/nimage =       4
     Waiting for input...
     Reading input from standard input

     Current dimensions of program PWSCF are:
     Max number of different atomic species (ntypx) = 10
     Max number of k-points (npk) =  40000
     Max angular momentum in pseudopotentials (lmaxx) =  3

     Subspace diagonalization in iterative solution of the eigenvalue problem:
     a serial algorithm will be used


     Parallelization info
     --------------------
     sticks:   dense  smooth     PW     G-vecs:    dense   smooth      PW
     Min        1211     483    194                17143     4342    1104
     Max        1214     484    195                17144     4343    1105
     Sum        4849    1933    777                68573    17369    4417



     bravais-lattice index     =            0
     lattice parameter (alat)  =      11.1800  a.u.
     unit-cell volume          =     363.0975 (a.u.)^3
     number of atoms/cell      =            2
     number of atomic types    =            1
     number of electrons       =        28.00
     number of Kohn-Sham states=           18
     kinetic-energy cutoff     =      50.0000  Ry
     charge density cutoff     =     500.0000  Ry
     convergence threshold     =      1.0E-08
     mixing beta               =       0.7000
     number of iterations used =            8  plain     mixing
     Exchange-correlation      =  SLA  PW   PBX  PBC ( 1  4  3  4 0 0)

     celldm(1)=  11.180000  celldm(2)=   0.000000  celldm(3)=   0.000000
     celldm(4)=   0.000000  celldm(5)=   0.000000  celldm(6)=   0.000000

     crystal axes: (cart. coord. in units of alat)
               a(1) = (   0.986837   0.000000   0.000000 )  
               a(2) = (   0.000000   0.986837   0.000000 )  
               a(3) = (   0.493419   0.493419   0.266813 )  

     reciprocal axes: (cart. coord. in units 2 pi/alat)
               b(1) = (  1.013339  0.000000 -1.873974 )  
               b(2) = (  0.000000  1.013339 -1.873974 )  
               b(3) = (  0.000000  0.000000  3.747943 )  


     PseudoPot. # 1 for Sn read from file:
     /home/s1333534/quantum_espresso/qe-6.1/pseudo/sn_pbe_v1.4.uspp.F.UPF
     MD5 check sum: 469debedee59599fedebd795477fea03
     Pseudo is Ultrasoft + core correction, Zval = 14.0
     Generated by new atomic code, or converted to UPF format
     Using radial grid of  891 points,  6 beta functions with: 
                l(1) =   0
                l(2) =   0
                l(3) =   1
                l(4) =   1
                l(5) =   2
                l(6) =   2
     Q(r) pseudized with  8 coefficients,  rinner =    1.350   1.350   1.350
                                                       1.350   1.350

     atomic species   valence    mass     pseudopotential
        Sn            14.00   118.71000     Sn( 1.00)

     No symmetry found



   Cartesian axes

     site n.     atom                  positions (alat units)
         1           Sn  tau(   1) = (   1.0725850   1.3160481   0.0533919  )
         2           Sn  tau(   2) = (   0.5198369   0.2763739   0.0177973  )

     number of k points=   448  Marzari-Vanderbilt smearing, width (Ry)=  0.0200

     Number of k-points >= 100: set verbosity='high' to print them.

     Dense  grid:    68573 G-vectors     FFT dimensions: (  80,  80,  60)

     Smooth grid:    17369 G-vectors     FFT dimensions: (  50,  50,  40)

     Estimated max dynamical RAM per process >      81.86MB

     Estimated total allocated dynamical RAM >     327.43MB

     Initial potential from superposition of free atoms

     starting charge   25.99991, renormalised to   28.00000
     Starting wfc are   18 randomized atomic wfcs

     total cpu time spent up to now is       12.2 secs

     per-process dynamical memory:    87.1 Mb

     Self-consistent Calculation

     iteration #  1     ecut=    50.00 Ry     beta=0.70
     Davidson diagonalization with overlap
     ethr =  1.00E-02,  avg # of iterations =  4.0

     total cpu time spent up to now is       58.8 secs

     total energy              =    -317.50290509 Ry
     Harris-Foulkes estimate   =    -319.46065472 Ry
     estimated scf accuracy    <       2.39744401 Ry

     iteration #  2     ecut=    50.00 Ry     beta=0.70
     Davidson diagonalization with overlap
     ethr =  8.56E-03,  avg # of iterations =  2.6

     total cpu time spent up to now is       99.7 secs

     total energy              =    -318.35046204 Ry
     Harris-Foulkes estimate   =    -318.64747188 Ry
     estimated scf accuracy    <       0.43696939 Ry

     iteration #  3     ecut=    50.00 Ry     beta=0.70
     Davidson diagonalization with overlap
     ethr =  1.56E-03,  avg # of iterations =  2.0

     total cpu time spent up to now is      137.6 secs

     total energy              =    -318.44102611 Ry
     Harris-Foulkes estimate   =    -318.44272683 Ry
     estimated scf accuracy    <       0.00288197 Ry

     iteration #  4     ecut=    50.00 Ry     beta=0.70
     Davidson diagonalization with overlap
     ethr =  1.03E-05,  avg # of iterations =  3.6

     total cpu time spent up to now is      182.4 secs

     total energy              =    -318.44163537 Ry
     Harris-Foulkes estimate   =    -318.44179460 Ry
     estimated scf accuracy    <       0.00031769 Ry

     iteration #  5     ecut=    50.00 Ry     beta=0.70
     Davidson diagonalization with overlap
     ethr =  1.13E-06,  avg # of iterations =  2.6

     total cpu time spent up to now is      216.8 secs

     total energy              =    -318.44168551 Ry
     Harris-Foulkes estimate   =    -318.44169574 Ry
     estimated scf accuracy    <       0.00001763 Ry

     iteration #  6     ecut=    50.00 Ry     beta=0.70
     Davidson diagonalization with overlap
     ethr =  6.30E-08,  avg # of iterations =  3.0

     total cpu time spent up to now is      259.8 secs

     total energy              =    -318.44169222 Ry
     Harris-Foulkes estimate   =    -318.44169261 Ry
     estimated scf accuracy    <       0.00000086 Ry

     iteration #  7     ecut=    50.00 Ry     beta=0.70
     Davidson diagonalization with overlap
     ethr =  3.05E-09,  avg # of iterations =  2.8

     total cpu time spent up to now is      297.1 secs

     total energy              =    -318.44169234 Ry
     Harris-Foulkes estimate   =    -318.44169246 Ry
     estimated scf accuracy    <       0.00000017 Ry

     iteration #  8     ecut=    50.00 Ry     beta=0.70
     Davidson diagonalization with overlap
     ethr =  6.14E-10,  avg # of iterations =  3.0

     total cpu time spent up to now is      339.8 secs

     End of self-consistent calculation

     Number of k-points >= 100: set verbosity='high' to print the bands.

     the Fermi energy is    10.8760 ev

!    total energy              =    -318.44169240 Ry
     Harris-Foulkes estimate   =    -318.44169240 Ry
     estimated scf accuracy    <          6.1E-09 Ry

     The total energy is the sum of the following terms:

     one-electron contribution =    -115.28680650 Ry
     hartree contribution      =      78.14869739 Ry
     xc contribution           =     -86.08464267 Ry
     ewald contribution        =    -195.21902634 Ry
     smearing contrib. (-TS)   =       0.00008572 Ry

     convergence has been achieved in   8 iterations

     Writing output data file sn.beta.11.18.save

     init_run     :     11.88s CPU     12.15s WALL (       1 calls)
     electrons    :    320.60s CPU    327.62s WALL (       1 calls)

     Called by init_run:
     wfcinit      :     10.80s CPU     11.06s WALL (       1 calls)
     potinit      :      0.30s CPU      0.30s WALL (       1 calls)

     Called by electrons:
     c_bands      :    260.80s CPU    266.42s WALL (       8 calls)
     sum_band     :     58.09s CPU     59.35s WALL (       8 calls)
     v_of_rho     :      0.88s CPU      0.92s WALL (       9 calls)
     newd         :      0.87s CPU      0.91s WALL (       9 calls)
     mix_rho      :      0.09s CPU      0.09s WALL (       8 calls)

     Called by c_bands:
     init_us_2    :      2.28s CPU      2.33s WALL (    7616 calls)
     cegterg      :    256.34s CPU    261.87s WALL (    3584 calls)

     Called by sum_band:
     sum_band:bec :      0.04s CPU      0.05s WALL (    3584 calls)
     addusdens    :      0.99s CPU      1.09s WALL (       8 calls)

     Called by *egterg:
     h_psi        :    243.40s CPU    248.82s WALL (   14558 calls)
     s_psi        :      1.55s CPU      1.57s WALL (   14558 calls)
     g_psi        :      0.51s CPU      0.51s WALL (   10526 calls)
     cdiaghg      :      9.12s CPU      9.23s WALL (   14110 calls)

     Called by h_psi:
     h_psi:pot    :    242.58s CPU    247.99s WALL (   14558 calls)
     h_psi:calbec :      3.82s CPU      3.86s WALL (   14558 calls)
     vloc_psi     :    236.65s CPU    241.96s WALL (   14558 calls)
     add_vuspsi   :      2.10s CPU      2.11s WALL (   14558 calls)

     General routines
     calbec       :      4.96s CPU      5.01s WALL (   18142 calls)
     fft          :      0.61s CPU      0.64s WALL (     140 calls)
     ffts         :      0.01s CPU      0.01s WALL (      17 calls)
     fftw         :    186.52s CPU    190.77s WALL (  448396 calls)
     interpolate  :      0.10s CPU      0.11s WALL (      17 calls)
     davcio       :      0.01s CPU      0.02s WALL (     448 calls)

     Parallel routines
     fft_scatter  :     36.48s CPU     37.63s WALL (  448553 calls)

     PWSCF        :  5m33.09s CPU     5m48.06s WALL


   This run was terminated on:   2: 9:35  13Nov2017            

=------------------------------------------------------------------------------=
   JOB DONE.
=------------------------------------------------------------------------------=
