
     Program PWSCF v.6.1 (svn rev. 13369) starts on 13Nov2017 at  2:21: 1 

     This program is part of the open-source Quantum ESPRESSO suite
     for quantum simulation of materials; please cite
         "P. Giannozzi et al., J. Phys.:Condens. Matter 21 395502 (2009);
          URL http://www.quantum-espresso.org", 
     in publications or presentations arising from this work. More details at
     http://www.quantum-espresso.org/quote

     Parallel version (MPI), running on     4 processors
     R & G space division:  proc/nbgrp/npool/nimage =       4
     Waiting for input...
     Reading input from standard input

     Current dimensions of program PWSCF are:
     Max number of different atomic species (ntypx) = 10
     Max number of k-points (npk) =  40000
     Max angular momentum in pseudopotentials (lmaxx) =  3

     Subspace diagonalization in iterative solution of the eigenvalue problem:
     a serial algorithm will be used


     Parallelization info
     --------------------
     sticks:   dense  smooth     PW     G-vecs:    dense   smooth      PW
     Min        1225     487    198                17545     4432    1134
     Max        1228     488    199                17546     4433    1135
     Sum        4905    1949    793                70181    17729    4537



     bravais-lattice index     =            0
     lattice parameter (alat)  =      11.2700  a.u.
     unit-cell volume          =     371.9372 (a.u.)^3
     number of atoms/cell      =            2
     number of atomic types    =            1
     number of electrons       =        28.00
     number of Kohn-Sham states=           18
     kinetic-energy cutoff     =      50.0000  Ry
     charge density cutoff     =     500.0000  Ry
     convergence threshold     =      1.0E-08
     mixing beta               =       0.7000
     number of iterations used =            8  plain     mixing
     Exchange-correlation      =  SLA  PW   PBX  PBC ( 1  4  3  4 0 0)

     celldm(1)=  11.270000  celldm(2)=   0.000000  celldm(3)=   0.000000
     celldm(4)=   0.000000  celldm(5)=   0.000000  celldm(6)=   0.000000

     crystal axes: (cart. coord. in units of alat)
               a(1) = (   0.986837   0.000000   0.000000 )  
               a(2) = (   0.000000   0.986837   0.000000 )  
               a(3) = (   0.493419   0.493419   0.266813 )  

     reciprocal axes: (cart. coord. in units 2 pi/alat)
               b(1) = (  1.013339  0.000000 -1.873974 )  
               b(2) = (  0.000000  1.013339 -1.873974 )  
               b(3) = (  0.000000  0.000000  3.747943 )  


     PseudoPot. # 1 for Sn read from file:
     /home/s1333534/quantum_espresso/qe-6.1/pseudo/sn_pbe_v1.4.uspp.F.UPF
     MD5 check sum: 469debedee59599fedebd795477fea03
     Pseudo is Ultrasoft + core correction, Zval = 14.0
     Generated by new atomic code, or converted to UPF format
     Using radial grid of  891 points,  6 beta functions with: 
                l(1) =   0
                l(2) =   0
                l(3) =   1
                l(4) =   1
                l(5) =   2
                l(6) =   2
     Q(r) pseudized with  8 coefficients,  rinner =    1.350   1.350   1.350
                                                       1.350   1.350

     atomic species   valence    mass     pseudopotential
        Sn            14.00   118.71000     Sn( 1.00)

     No symmetry found



   Cartesian axes

     site n.     atom                  positions (alat units)
         1           Sn  tau(   1) = (   1.0725850   1.3160481   0.0533919  )
         2           Sn  tau(   2) = (   0.5198369   0.2763739   0.0177973  )

     number of k points=   448  Marzari-Vanderbilt smearing, width (Ry)=  0.0200

     Number of k-points >= 100: set verbosity='high' to print them.

     Dense  grid:    70181 G-vectors     FFT dimensions: (  80,  80,  60)

     Smooth grid:    17729 G-vectors     FFT dimensions: (  54,  54,  40)

     Estimated max dynamical RAM per process >      83.66MB

     Estimated total allocated dynamical RAM >     334.62MB

     Initial potential from superposition of free atoms

     starting charge   25.99991, renormalised to   28.00000
     Starting wfc are   18 randomized atomic wfcs

     total cpu time spent up to now is       13.3 secs

     per-process dynamical memory:    92.1 Mb

     Self-consistent Calculation

     iteration #  1     ecut=    50.00 Ry     beta=0.70
     Davidson diagonalization with overlap
     ethr =  1.00E-02,  avg # of iterations =  3.9

     total cpu time spent up to now is       63.0 secs

     total energy              =    -317.50160601 Ry
     Harris-Foulkes estimate   =    -319.47059483 Ry
     estimated scf accuracy    <       2.41092268 Ry

     iteration #  2     ecut=    50.00 Ry     beta=0.70
     Davidson diagonalization with overlap
     ethr =  8.61E-03,  avg # of iterations =  2.6

     total cpu time spent up to now is      106.3 secs

     total energy              =    -318.35420444 Ry
     Harris-Foulkes estimate   =    -318.65351863 Ry
     estimated scf accuracy    <       0.44028486 Ry

     iteration #  3     ecut=    50.00 Ry     beta=0.70
     Davidson diagonalization with overlap
     ethr =  1.57E-03,  avg # of iterations =  2.0

     total cpu time spent up to now is      148.6 secs

     total energy              =    -318.44547084 Ry
     Harris-Foulkes estimate   =    -318.44719362 Ry
     estimated scf accuracy    <       0.00291336 Ry

     iteration #  4     ecut=    50.00 Ry     beta=0.70
     Davidson diagonalization with overlap
     ethr =  1.04E-05,  avg # of iterations =  3.6

     total cpu time spent up to now is      195.8 secs

     total energy              =    -318.44608631 Ry
     Harris-Foulkes estimate   =    -318.44625010 Ry
     estimated scf accuracy    <       0.00032585 Ry

     iteration #  5     ecut=    50.00 Ry     beta=0.70
     Davidson diagonalization with overlap
     ethr =  1.16E-06,  avg # of iterations =  2.6

     total cpu time spent up to now is      232.3 secs

     total energy              =    -318.44613796 Ry
     Harris-Foulkes estimate   =    -318.44614834 Ry
     estimated scf accuracy    <       0.00001784 Ry

     iteration #  6     ecut=    50.00 Ry     beta=0.70
     Davidson diagonalization with overlap
     ethr =  6.37E-08,  avg # of iterations =  3.0

     total cpu time spent up to now is      278.3 secs

     total energy              =    -318.44614483 Ry
     Harris-Foulkes estimate   =    -318.44614522 Ry
     estimated scf accuracy    <       0.00000087 Ry

     iteration #  7     ecut=    50.00 Ry     beta=0.70
     Davidson diagonalization with overlap
     ethr =  3.11E-09,  avg # of iterations =  2.7

     total cpu time spent up to now is      318.1 secs

     total energy              =    -318.44614494 Ry
     Harris-Foulkes estimate   =    -318.44614506 Ry
     estimated scf accuracy    <       0.00000017 Ry

     iteration #  8     ecut=    50.00 Ry     beta=0.70
     Davidson diagonalization with overlap
     ethr =  6.24E-10,  avg # of iterations =  3.0

     total cpu time spent up to now is      363.3 secs

     End of self-consistent calculation

     Number of k-points >= 100: set verbosity='high' to print the bands.

     the Fermi energy is    10.5132 ev

!    total energy              =    -318.44614500 Ry
     Harris-Foulkes estimate   =    -318.44614501 Ry
     estimated scf accuracy    <          6.9E-09 Ry

     The total energy is the sum of the following terms:

     one-electron contribution =    -117.76287819 Ry
     hartree contribution      =      79.03356791 Ry
     xc contribution           =     -86.05688753 Ry
     ewald contribution        =    -193.66004565 Ry
     smearing contrib. (-TS)   =       0.00009846 Ry

     convergence has been achieved in   8 iterations

     Writing output data file sn.beta.11.27.save

     init_run     :     12.91s CPU     13.22s WALL (       1 calls)
     electrons    :    342.60s CPU    350.11s WALL (       1 calls)

     Called by init_run:
     wfcinit      :     11.81s CPU     12.10s WALL (       1 calls)
     potinit      :      0.30s CPU      0.30s WALL (       1 calls)

     Called by electrons:
     c_bands      :    279.08s CPU    285.28s WALL (       8 calls)
     sum_band     :     61.80s CPU     62.94s WALL (       8 calls)
     v_of_rho     :      0.87s CPU      0.92s WALL (       9 calls)
     newd         :      0.89s CPU      0.94s WALL (       9 calls)
     mix_rho      :      0.09s CPU      0.09s WALL (       8 calls)

     Called by c_bands:
     init_us_2    :      2.33s CPU      2.37s WALL (    7616 calls)
     cegterg      :    274.48s CPU    280.59s WALL (    3584 calls)

     Called by sum_band:
     sum_band:bec :      0.04s CPU      0.05s WALL (    3584 calls)
     addusdens    :      1.00s CPU      1.11s WALL (       8 calls)

     Called by *egterg:
     h_psi        :    262.44s CPU    268.44s WALL (   14541 calls)
     s_psi        :      1.46s CPU      1.48s WALL (   14541 calls)
     g_psi        :      0.53s CPU      0.54s WALL (   10509 calls)
     cdiaghg      :      9.08s CPU      9.21s WALL (   14093 calls)

     Called by h_psi:
     h_psi:pot    :    261.64s CPU    267.61s WALL (   14541 calls)
     h_psi:calbec :      3.59s CPU      3.62s WALL (   14541 calls)
     vloc_psi     :    256.16s CPU    262.05s WALL (   14541 calls)
     add_vuspsi   :      1.87s CPU      1.89s WALL (   14541 calls)

     General routines
     calbec       :      4.76s CPU      4.79s WALL (   18125 calls)
     fft          :      0.60s CPU      0.64s WALL (     140 calls)
     ffts         :      0.01s CPU      0.01s WALL (      17 calls)
     fftw         :    204.45s CPU    209.20s WALL (  448292 calls)
     interpolate  :      0.10s CPU      0.11s WALL (      17 calls)
     davcio       :      0.01s CPU      0.02s WALL (     448 calls)

     Parallel routines
     fft_scatter  :     37.67s CPU     38.37s WALL (  448449 calls)

     PWSCF        :  5m56.13s CPU     6m10.91s WALL


   This run was terminated on:   2:27:12  13Nov2017            

=------------------------------------------------------------------------------=
   JOB DONE.
=------------------------------------------------------------------------------=
