
     Program PWSCF v.6.1 (svn rev. 13369) starts on 11Nov2017 at 16:13: 4 

     This program is part of the open-source Quantum ESPRESSO suite
     for quantum simulation of materials; please cite
         "P. Giannozzi et al., J. Phys.:Condens. Matter 21 395502 (2009);
          URL http://www.quantum-espresso.org", 
     in publications or presentations arising from this work. More details at
     http://www.quantum-espresso.org/quote

     Parallel version (MPI), running on     4 processors
     R & G space division:  proc/nbgrp/npool/nimage =       4
     Waiting for input...
     Reading input from standard input
     Message from routine read_cards :
     DEPRECATED: no units specified in ATOMIC_POSITIONS card
     Message from routine read_cards :
     ATOMIC_POSITIONS: units set to alat

     Current dimensions of program PWSCF are:
     Max number of different atomic species (ntypx) = 10
     Max number of k-points (npk) =  40000
     Max angular momentum in pseudopotentials (lmaxx) =  3

     Subspace diagonalization in iterative solution of the eigenvalue problem:
     a serial algorithm will be used


     Parallelization info
     --------------------
     sticks:   dense  smooth     PW     G-vecs:    dense   smooth      PW
     Min         545     274     82                16833     5957     985
     Max         547     275     85                16835     5958     986
     Sum        2185    1099    337                67337    23829    3943



     bravais-lattice index     =            2
     lattice parameter (alat)  =      12.5900  a.u.
     unit-cell volume          =     498.9042 (a.u.)^3
     number of atoms/cell      =            2
     number of atomic types    =            1
     number of electrons       =        28.00
     number of Kohn-Sham states=           14
     kinetic-energy cutoff     =      50.0000  Ry
     charge density cutoff     =     400.0000  Ry
     convergence threshold     =      1.0E-08
     mixing beta               =       0.7000
     number of iterations used =            8  plain     mixing
     Exchange-correlation      =  SLA  PW   PBX  PBC ( 1  4  3  4 0 0)

     celldm(1)=  12.590000  celldm(2)=   0.000000  celldm(3)=   0.000000
     celldm(4)=   0.000000  celldm(5)=   0.000000  celldm(6)=   0.000000

     crystal axes: (cart. coord. in units of alat)
               a(1) = (  -0.500000   0.000000   0.500000 )  
               a(2) = (   0.000000   0.500000   0.500000 )  
               a(3) = (  -0.500000   0.500000   0.000000 )  

     reciprocal axes: (cart. coord. in units 2 pi/alat)
               b(1) = ( -1.000000 -1.000000  1.000000 )  
               b(2) = (  1.000000  1.000000  1.000000 )  
               b(3) = ( -1.000000  1.000000 -1.000000 )  


     PseudoPot. # 1 for Sn read from file:
     /home/s1333534/quantum_espresso/qe-6.1/pseudo/sn_pbe_v1.4.uspp.F.UPF
     MD5 check sum: 469debedee59599fedebd795477fea03
     Pseudo is Ultrasoft + core correction, Zval = 14.0
     Generated by new atomic code, or converted to UPF format
     Using radial grid of  891 points,  6 beta functions with: 
                l(1) =   0
                l(2) =   0
                l(3) =   1
                l(4) =   1
                l(5) =   2
                l(6) =   2
     Q(r) pseudized with  8 coefficients,  rinner =    1.350   1.350   1.350
                                                       1.350   1.350

     atomic species   valence    mass     pseudopotential
        Sn            14.00   118.71000     Sn( 1.00)

     48 Sym. Ops., with inversion, found (24 have fractional translation)



   Cartesian axes

     site n.     atom                  positions (alat units)
         1           Sn  tau(   1) = (   0.0000000   0.0000000   0.0000000  )
         2           Sn  tau(   2) = (   0.2500000   0.2500000   0.2500000  )

     number of k points=    60
                       cart. coord. in units 2pi/alat
        k(    1) = (  -0.0625000   0.0625000   0.0625000), wk =   0.0078125
        k(    2) = (  -0.1875000   0.1875000  -0.0625000), wk =   0.0234375
        k(    3) = (  -0.3125000   0.3125000  -0.1875000), wk =   0.0234375
        k(    4) = (  -0.4375000   0.4375000  -0.3125000), wk =   0.0234375
        k(    5) = (   0.4375000  -0.4375000   0.5625000), wk =   0.0234375
        k(    6) = (   0.3125000  -0.3125000   0.4375000), wk =   0.0234375
        k(    7) = (   0.1875000  -0.1875000   0.3125000), wk =   0.0234375
        k(    8) = (   0.0625000  -0.0625000   0.1875000), wk =   0.0234375
        k(    9) = (  -0.0625000   0.3125000   0.0625000), wk =   0.0234375
        k(   10) = (  -0.1875000   0.4375000  -0.0625000), wk =   0.0468750
        k(   11) = (  -0.3125000   0.5625000  -0.1875000), wk =   0.0468750
        k(   12) = (   0.5625000  -0.3125000   0.6875000), wk =   0.0468750
        k(   13) = (   0.4375000  -0.1875000   0.5625000), wk =   0.0468750
        k(   14) = (   0.3125000  -0.0625000   0.4375000), wk =   0.0468750
        k(   15) = (   0.1875000   0.0625000   0.3125000), wk =   0.0468750
        k(   16) = (  -0.0625000   0.5625000   0.0625000), wk =   0.0234375
        k(   17) = (  -0.1875000   0.6875000  -0.0625000), wk =   0.0468750
        k(   18) = (   0.6875000  -0.1875000   0.8125000), wk =   0.0468750
        k(   19) = (   0.5625000  -0.0625000   0.6875000), wk =   0.0468750
        k(   20) = (   0.4375000   0.0625000   0.5625000), wk =   0.0468750
        k(   21) = (   0.3125000   0.1875000   0.4375000), wk =   0.0468750
        k(   22) = (  -0.0625000   0.8125000   0.0625000), wk =   0.0234375
        k(   23) = (   0.8125000  -0.0625000   0.9375000), wk =   0.0468750
        k(   24) = (   0.6875000   0.0625000   0.8125000), wk =   0.0468750
        k(   25) = (   0.5625000   0.1875000   0.6875000), wk =   0.0468750
        k(   26) = (   0.4375000   0.3125000   0.5625000), wk =   0.0468750
        k(   27) = (  -0.0625000  -0.9375000   0.0625000), wk =   0.0234375
        k(   28) = (  -0.1875000  -0.8125000  -0.0625000), wk =   0.0468750
        k(   29) = (  -0.3125000  -0.6875000  -0.1875000), wk =   0.0468750
        k(   30) = (  -0.0625000  -0.6875000   0.0625000), wk =   0.0234375
        k(   31) = (  -0.1875000  -0.5625000  -0.0625000), wk =   0.0468750
        k(   32) = (  -0.0625000  -0.4375000   0.0625000), wk =   0.0234375
        k(   33) = (  -0.1875000   0.1875000   0.1875000), wk =   0.0078125
        k(   34) = (  -0.3125000   0.3125000   0.0625000), wk =   0.0234375
        k(   35) = (  -0.4375000   0.4375000  -0.0625000), wk =   0.0234375
        k(   36) = (   0.4375000  -0.4375000   0.8125000), wk =   0.0234375
        k(   37) = (   0.3125000  -0.3125000   0.6875000), wk =   0.0234375
        k(   38) = (   0.1875000  -0.1875000   0.5625000), wk =   0.0234375
        k(   39) = (  -0.1875000   0.4375000   0.1875000), wk =   0.0234375
        k(   40) = (  -0.3125000   0.5625000   0.0625000), wk =   0.0468750
        k(   41) = (   0.5625000  -0.3125000   0.9375000), wk =   0.0468750
        k(   42) = (   0.4375000  -0.1875000   0.8125000), wk =   0.0468750
        k(   43) = (   0.3125000  -0.0625000   0.6875000), wk =   0.0468750
        k(   44) = (  -0.1875000   0.6875000   0.1875000), wk =   0.0234375
        k(   45) = (   0.6875000  -0.1875000   1.0625000), wk =   0.0468750
        k(   46) = (   0.5625000  -0.0625000   0.9375000), wk =   0.0468750
        k(   47) = (   0.4375000   0.0625000   0.8125000), wk =   0.0468750
        k(   48) = (  -0.1875000  -1.0625000   0.1875000), wk =   0.0234375
        k(   49) = (  -0.3125000  -0.9375000   0.0625000), wk =   0.0468750
        k(   50) = (  -0.1875000  -0.8125000   0.1875000), wk =   0.0234375
        k(   51) = (  -0.3125000   0.3125000   0.3125000), wk =   0.0078125
        k(   52) = (  -0.4375000   0.4375000   0.1875000), wk =   0.0234375
        k(   53) = (   0.4375000  -0.4375000   1.0625000), wk =   0.0234375
        k(   54) = (   0.3125000  -0.3125000   0.9375000), wk =   0.0234375
        k(   55) = (  -0.3125000   0.5625000   0.3125000), wk =   0.0234375
        k(   56) = (   0.5625000  -0.3125000   1.1875000), wk =   0.0468750
        k(   57) = (   0.4375000  -0.1875000   1.0625000), wk =   0.0468750
        k(   58) = (  -0.3125000  -1.1875000   0.3125000), wk =   0.0234375
        k(   59) = (  -0.4375000   0.4375000   0.4375000), wk =   0.0078125
        k(   60) = (   0.4375000  -0.4375000   1.3125000), wk =   0.0234375

     Dense  grid:    67337 G-vectors     FFT dimensions: (  60,  60,  60)

     Smooth grid:    23829 G-vectors     FFT dimensions: (  45,  45,  45)

     Estimated max dynamical RAM per process >      21.85MB

     Estimated total allocated dynamical RAM >      87.39MB

     Initial potential from superposition of free atoms

     starting charge   25.99991, renormalised to   28.00000
     Starting wfc are   18 randomized atomic wfcs

     total cpu time spent up to now is        1.7 secs

     per-process dynamical memory:    26.0 Mb

     Self-consistent Calculation

     iteration #  1     ecut=    50.00 Ry     beta=0.70
     Davidson diagonalization with overlap
     ethr =  1.00E-02,  avg # of iterations =  2.6

     total cpu time spent up to now is        5.0 secs

     total energy              =    -317.48435395 Ry
     Harris-Foulkes estimate   =    -319.54970539 Ry
     estimated scf accuracy    <       2.51632128 Ry

     iteration #  2     ecut=    50.00 Ry     beta=0.70
     Davidson diagonalization with overlap
     ethr =  8.99E-03,  avg # of iterations =  3.0

     total cpu time spent up to now is        8.7 secs

     total energy              =    -318.39364237 Ry
     Harris-Foulkes estimate   =    -318.71212091 Ry
     estimated scf accuracy    <       0.47407367 Ry

     iteration #  3     ecut=    50.00 Ry     beta=0.70
     Davidson diagonalization with overlap
     ethr =  1.69E-03,  avg # of iterations =  2.0

     total cpu time spent up to now is       12.0 secs

     total energy              =    -318.48882280 Ry
     Harris-Foulkes estimate   =    -318.49039183 Ry
     estimated scf accuracy    <       0.00287812 Ry

     iteration #  4     ecut=    50.00 Ry     beta=0.70
     Davidson diagonalization with overlap
     ethr =  1.03E-05,  avg # of iterations =  3.0

     total cpu time spent up to now is       15.5 secs

     total energy              =    -318.48970762 Ry
     Harris-Foulkes estimate   =    -318.48982516 Ry
     estimated scf accuracy    <       0.00017406 Ry

     iteration #  5     ecut=    50.00 Ry     beta=0.70
     Davidson diagonalization with overlap
     ethr =  6.22E-07,  avg # of iterations =  3.0

     total cpu time spent up to now is       19.0 secs

     total energy              =    -318.48976122 Ry
     Harris-Foulkes estimate   =    -318.48976199 Ry
     estimated scf accuracy    <       0.00000155 Ry

     iteration #  6     ecut=    50.00 Ry     beta=0.70
     Davidson diagonalization with overlap
     ethr =  5.55E-09,  avg # of iterations =  3.9

     total cpu time spent up to now is       22.7 secs

     total energy              =    -318.48976199 Ry
     Harris-Foulkes estimate   =    -318.48976203 Ry
     estimated scf accuracy    <       0.00000007 Ry

     iteration #  7     ecut=    50.00 Ry     beta=0.70
     Davidson diagonalization with overlap
     ethr =  2.37E-10,  avg # of iterations =  3.2

     total cpu time spent up to now is       26.4 secs

     End of self-consistent calculation

          k =-0.0625 0.0625 0.0625 (  2960 PWs)   bands (ev):

   -14.6766 -14.6766 -14.6732 -14.6220 -14.6220 -14.3856 -14.3856 -14.3764
   -14.3648 -14.3648  -3.1823   5.3080   6.8984   6.8984

          k =-0.1875 0.1875-0.0625 (  2968 PWs)   bands (ev):

   -14.6887 -14.6835 -14.6695 -14.6114 -14.6049 -14.4087 -14.3992 -14.3741
   -14.3593 -14.3472  -2.9983   4.1530   6.2241   6.7618

          k =-0.3125 0.3125-0.1875 (  2968 PWs)   bands (ev):

   -14.6995 -14.6963 -14.6589 -14.5940 -14.5845 -14.4265 -14.4150 -14.3895
   -14.3427 -14.3352  -2.5609   2.5996   5.7329   6.3426

          k =-0.4375 0.4375-0.3125 (  2980 PWs)   bands (ev):

   -14.7048 -14.7045 -14.6487 -14.5813 -14.5741 -14.4340 -14.4248 -14.4048
   -14.3321 -14.3308  -1.9843   1.3090   5.4876   5.9864

          k = 0.4375-0.4375 0.5625 (  2972 PWs)   bands (ev):

   -14.7079 -14.7040 -14.6454 -14.5754 -14.5745 -14.4329 -14.4306 -14.4075
   -14.3319 -14.3277  -1.7293   0.8692   5.4866   5.8143

          k = 0.3125-0.3125 0.4375 (  2973 PWs)   bands (ev):

   -14.7056 -14.6998 -14.6527 -14.5844 -14.5758 -14.4359 -14.4208 -14.3979
   -14.3375 -14.3298  -2.1748   1.6813   5.7145   5.8638

          k = 0.1875-0.1875 0.3125 (  2953 PWs)   bands (ev):

   -14.6964 -14.6911 -14.6641 -14.5998 -14.5889 -14.4262 -14.4057 -14.3831
   -14.3474 -14.3389  -2.7307   3.1109   6.1292   6.1322

          k = 0.0625-0.0625 0.1875 (  2967 PWs)   bands (ev):

   -14.6825 -14.6796 -14.6737 -14.6179 -14.6101 -14.4065 -14.3861 -14.3732
   -14.3642 -14.3537  -3.0896   4.6600   6.5563   6.5880

          k =-0.0625 0.3125 0.0625 (  2954 PWs)   bands (ev):

   -14.6887 -14.6853 -14.6749 -14.6092 -14.5894 -14.4326 -14.3920 -14.3661
   -14.3586 -14.3470  -2.9049   3.8642   6.0893   6.1050

          k =-0.1875 0.4375-0.0625 (  2964 PWs)   bands (ev):

   -14.7015 -14.6964 -14.6626 -14.5936 -14.5664 -14.4574 -14.4084 -14.3768
   -14.3444 -14.3339  -2.5466   2.7668   5.3240   5.8678

          k =-0.3125 0.5625-0.1875 (  2980 PWs)   bands (ev):

   -14.7156 -14.7052 -14.6411 -14.5763 -14.5529 -14.4682 -14.4268 -14.4022
   -14.3315 -14.3198  -1.9892   1.5371   4.8183   5.5703

          k = 0.5625-0.3125 0.6875 (  2977 PWs)   bands (ev):

   -14.7219 -14.7096 -14.6256 -14.5630 -14.5560 -14.4592 -14.4437 -14.4201
   -14.3252 -14.3129  -1.5363   0.7830   4.5579   5.5042

          k = 0.4375-0.1875 0.5625 (  2986 PWs)   bands (ev):

   -14.7185 -14.7098 -14.6292 -14.5740 -14.5547 -14.4585 -14.4313 -14.4211
   -14.3249 -14.3175  -1.8024   1.2054   4.5624   5.7094

          k = 0.3125-0.0625 0.4375 (  2971 PWs)   bands (ev):

   -14.7063 -14.7039 -14.6482 -14.5897 -14.5662 -14.4508 -14.4172 -14.3952
   -14.3354 -14.3281  -2.3822   2.3393   4.9181   6.0938

          k = 0.1875 0.0625 0.3125 (  2956 PWs)   bands (ev):

   -14.6948 -14.6891 -14.6663 -14.6045 -14.5886 -14.4297 -14.4017 -14.3749
   -14.3534 -14.3400  -2.8166   3.4802   5.7665   6.3841

          k =-0.0625 0.5625 0.0625 (  2965 PWs)   bands (ev):

   -14.7033 -14.7005 -14.6665 -14.5789 -14.5366 -14.4938 -14.4203 -14.3664
   -14.3383 -14.3344  -2.2673   2.2314   5.2073   5.2949

          k =-0.1875 0.6875-0.0625 (  2979 PWs)   bands (ev):

   -14.7157 -14.7104 -14.6431 -14.5583 -14.5191 -14.5124 -14.4414 -14.3926
   -14.3254 -14.3196  -1.7570   1.3298   4.6471   5.0353

          k = 0.6875-0.1875 0.8125 (  2988 PWs)   bands (ev):

   -14.7297 -14.7152 -14.6133 -14.5390 -14.5223 -14.5070 -14.4641 -14.4234
   -14.3186 -14.3041  -1.1884   0.5365   4.0747   5.0046

          k = 0.5625-0.0625 0.6875 (  2982 PWs)   bands (ev):

   -14.7321 -14.7163 -14.6049 -14.5437 -14.5261 -14.4904 -14.4715 -14.4329
   -14.3167 -14.3017  -1.2523   0.6178   3.8638   5.2556

          k = 0.4375 0.0625 0.5625 (  2984 PWs)   bands (ev):

   -14.7212 -14.7125 -14.6224 -14.5733 -14.5450 -14.4692 -14.4326 -14.4267
   -14.3210 -14.3151  -1.8303   1.3695   4.2404   5.6860

          k = 0.3125 0.1875 0.4375 (  2971 PWs)   bands (ev):

   -14.7067 -14.7006 -14.6511 -14.5878 -14.5709 -14.4444 -14.4177 -14.3955
   -14.3376 -14.3285  -2.3113   2.0636   5.2795   6.0009

          k =-0.0625 0.8125 0.0625 (  2978 PWs)   bands (ev):

   -14.7156 -14.7131 -14.6365 -14.5576 -14.5356 -14.4771 -14.4629 -14.3978
   -14.3210 -14.3185  -1.2958   0.6794   4.6794   4.8037

          k = 0.8125-0.0625 0.9375 (  2978 PWs)   bands (ev):

   -14.7234 -14.7182 -14.6052 -14.5756 -14.5122 -14.4873 -14.4587 -14.4298
   -14.3146 -14.3093  -0.6810  -0.0339   4.3401   4.6565

          k = 0.6875 0.0625 0.8125 (  2984 PWs)   bands (ev):

   -14.7328 -14.7177 -14.6009 -14.5364 -14.5177 -14.4955 -14.4848 -14.4343
   -14.3150 -14.3003  -0.8127   0.1301   3.9010   4.8931

          k = 0.5625 0.1875 0.6875 (  2983 PWs)   bands (ev):

   -14.7286 -14.7136 -14.6133 -14.5516 -14.5408 -14.4767 -14.4589 -14.4278
   -14.3201 -14.3056  -1.3537   0.6618   4.1204   5.3387

          k = 0.4375 0.3125 0.5625 (  2982 PWs)   bands (ev):

   -14.7133 -14.7059 -14.6388 -14.5749 -14.5667 -14.4439 -14.4307 -14.4127
   -14.3297 -14.3224  -1.7607   1.0009   5.0589   5.7494

          k =-0.0625-0.9375 0.0625 (  2978 PWs)   bands (ev):

   -14.7182 -14.7162 -14.6140 -14.5870 -14.5116 -14.4869 -14.4482 -14.4209
   -14.3169 -14.3145  -0.6991  -0.0358   4.5715   4.7028

          k =-0.1875-0.8125-0.0625 (  2979 PWs)   bands (ev):

   -14.7208 -14.7156 -14.6259 -14.5484 -14.5360 -14.4849 -14.4635 -14.4092
   -14.3185 -14.3129  -1.2492   0.6311   4.4436   4.7836

          k =-0.3125-0.6875-0.1875 (  2986 PWs)   bands (ev):

   -14.7238 -14.7106 -14.6282 -14.5592 -14.5331 -14.4929 -14.4434 -14.4115
   -14.3246 -14.3109  -1.6068   1.0260   4.3969   5.2300

          k =-0.0625-0.6875 0.0625 (  2977 PWs)   bands (ev):

   -14.7102 -14.7079 -14.6542 -14.5585 -14.5263 -14.5070 -14.4404 -14.3792
   -14.3285 -14.3256  -1.8209   1.4391   4.8930   5.0029

          k =-0.1875-0.5625-0.0625 (  2972 PWs)   bands (ev):

   -14.7088 -14.7038 -14.6552 -14.5779 -14.5407 -14.4875 -14.4223 -14.3817
   -14.3342 -14.3272  -2.1918   2.0456   4.9442   5.4031

          k =-0.0625-0.4375 0.0625 (  2959 PWs)   bands (ev):

   -14.6957 -14.6928 -14.6733 -14.5960 -14.5646 -14.4623 -14.4039 -14.3618
   -14.3489 -14.3421  -2.6299   3.0447   5.6126   5.6690

          k =-0.1875 0.1875 0.1875 (  2956 PWs)   bands (ev):

   -14.6890 -14.6890 -14.6667 -14.6038 -14.6038 -14.4063 -14.4063 -14.3831
   -14.3480 -14.3480  -2.9086   3.7085   6.5046   6.5046

          k =-0.3125 0.3125 0.0625 (  2974 PWs)   bands (ev):

   -14.7006 -14.6964 -14.6571 -14.5978 -14.5819 -14.4311 -14.4146 -14.3847
   -14.3456 -14.3336  -2.6413   2.9329   5.3310   6.4728

          k =-0.4375 0.4375-0.0625 (  2975 PWs)   bands (ev):

   -14.7132 -14.7091 -14.6340 -14.5841 -14.5589 -14.4518 -14.4253 -14.4142
   -14.3249 -14.3243  -2.1410   1.8592   4.5388   6.0575

          k = 0.4375-0.4375 0.8125 (  2986 PWs)   bands (ev):

   -14.7239 -14.7115 -14.6203 -14.5651 -14.5508 -14.4567 -14.4498 -14.4264
   -14.3223 -14.3115  -1.5809   0.9041   4.3124   5.6394

          k = 0.3125-0.3125 0.6875 (  2983 PWs)   bands (ev):

   -14.7237 -14.7087 -14.6284 -14.5604 -14.5473 -14.4751 -14.4433 -14.4134
   -14.3267 -14.3109  -1.5666   0.8814   4.4895   5.4043

          k = 0.1875-0.1875 0.5625 (  2971 PWs)   bands (ev):

   -14.7132 -14.7019 -14.6509 -14.5772 -14.5462 -14.4798 -14.4239 -14.3877
   -14.3360 -14.3224  -2.1226   1.8461   4.9729   5.4138

          k =-0.1875 0.4375 0.1875 (  2964 PWs)   bands (ev):

   -14.7046 -14.6957 -14.6594 -14.5913 -14.5692 -14.4518 -14.4112 -14.3829
   -14.3438 -14.3309  -2.4672   2.4806   5.5246   5.7512

          k =-0.3125 0.5625 0.0625 (  2980 PWs)   bands (ev):

   -14.7143 -14.7095 -14.6386 -14.5768 -14.5452 -14.4775 -14.4259 -14.4039
   -14.3264 -14.3217  -2.0439   1.7359   4.5774   5.5732

          k = 0.5625-0.3125 0.9375 (  2993 PWs)   bands (ev):

   -14.7274 -14.7171 -14.6107 -14.5567 -14.5265 -14.4939 -14.4517 -14.4307
   -14.3167 -14.3074  -1.4607   0.8845   4.0491   5.1874

          k = 0.4375-0.1875 0.8125 (  2985 PWs)   bands (ev):

   -14.7309 -14.7179 -14.6040 -14.5430 -14.5226 -14.5007 -14.4654 -14.4338
   -14.3156 -14.3028  -1.1611   0.4943   4.0110   4.9750

          k = 0.3125-0.0625 0.6875 (  2987 PWs)   bands (ev):

   -14.7214 -14.7150 -14.6261 -14.5588 -14.5218 -14.5054 -14.4436 -14.4130
   -14.3196 -14.3137  -1.6338   1.1333   4.3304   5.0940

          k =-0.1875 0.6875 0.1875 (  2979 PWs)   bands (ev):

   -14.7206 -14.7084 -14.6383 -14.5584 -14.5229 -14.5069 -14.4419 -14.3984
   -14.3276 -14.3142  -1.7043   1.2142   4.5297   5.1457

          k = 0.6875-0.1875 1.0625 (  2984 PWs)   bands (ev):

   -14.7263 -14.7198 -14.6095 -14.5377 -14.5336 -14.4963 -14.4652 -14.4266
   -14.3137 -14.3074  -1.1625   0.5374   4.1850   4.7256

          k = 0.5625-0.0625 0.9375 (  2996 PWs)   bands (ev):

   -14.7315 -14.7262 -14.5782 -14.5444 -14.5170 -14.4927 -14.4835 -14.4549
   -14.3068 -14.3017  -0.6345  -0.0315   4.0141   4.4082

          k = 0.4375 0.0625 0.8125 (  2990 PWs)   bands (ev):

   -14.7307 -14.7221 -14.5955 -14.5376 -14.5204 -14.5046 -14.4712 -14.4408
   -14.3112 -14.3027  -1.0486   0.4091   3.9781   4.7279

          k =-0.1875-1.0625 0.1875 (  2972 PWs)   bands (ev):

   -14.7290 -14.7161 -14.6062 -14.5582 -14.5138 -14.4862 -14.4753 -14.4286
   -14.3166 -14.3037  -0.7272   0.0245   4.0665   4.8669

          k =-0.3125-0.9375 0.0625 (  2985 PWs)   bands (ev):

   -14.7286 -14.7227 -14.5907 -14.5586 -14.5142 -14.4888 -14.4738 -14.4435
   -14.3101 -14.3043  -0.6543  -0.0320   4.1309   4.5150

          k =-0.1875-0.8125 0.1875 (  2973 PWs)   bands (ev):

   -14.7261 -14.7132 -14.6221 -14.5369 -14.5366 -14.4951 -14.4636 -14.4133
   -14.3207 -14.3073  -1.2248   0.5931   4.2228   4.9610

          k =-0.3125 0.3125 0.3125 (  2956 PWs)   bands (ev):

   -14.6985 -14.6985 -14.6583 -14.5865 -14.5865 -14.4213 -14.4213 -14.3940
   -14.3373 -14.3373  -2.4030   2.1428   6.1218   6.1218

          k =-0.4375 0.4375 0.1875 (  2966 PWs)   bands (ev):

   -14.7096 -14.7070 -14.6400 -14.5832 -14.5657 -14.4438 -14.4237 -14.4109
   -14.3279 -14.3267  -2.0857   1.6237   4.9155   6.0352

          k = 0.4375-0.4375 1.0625 (  2983 PWs)   bands (ev):

   -14.7279 -14.7138 -14.6122 -14.5616 -14.5387 -14.4691 -14.4579 -14.4299
   -14.3192 -14.3072  -1.5613   0.9895   3.9921   5.5962

          k = 0.3125-0.3125 0.9375 (  2981 PWs)   bands (ev):

   -14.7341 -14.7158 -14.6050 -14.5229 -14.5216 -14.5081 -14.4808 -14.4308
   -14.3171 -14.2993  -1.0278   0.3594   3.8089   5.1776

          k =-0.3125 0.5625 0.3125 (  2979 PWs)   bands (ev):

   -14.7147 -14.7035 -14.6422 -14.5754 -14.5623 -14.4548 -14.4285 -14.4041
   -14.3331 -14.3204  -1.8885   1.2565   5.0715   5.6140

          k = 0.5625-0.3125 1.1875 (  2991 PWs)   bands (ev):

   -14.7259 -14.7136 -14.6173 -14.5594 -14.5398 -14.4794 -14.4479 -14.4258
   -14.3207 -14.3088  -1.4816   0.8247   4.2526   5.2983

          k = 0.4375-0.1875 1.0625 (  2990 PWs)   bands (ev):

   -14.7334 -14.7208 -14.5936 -14.5297 -14.5177 -14.5065 -14.4811 -14.4414
   -14.3122 -14.3000  -0.9255   0.2655   3.8733   4.8054

          k =-0.3125-1.1875 0.3125 (  2978 PWs)   bands (ev):

   -14.7303 -14.7131 -14.6144 -14.5412 -14.5329 -14.4940 -14.4625 -14.4235
   -14.3207 -14.3034  -1.2508   0.5669   4.0485   5.2550

          k =-0.4375 0.4375 0.4375 (  2971 PWs)   bands (ev):

   -14.7028 -14.7028 -14.6523 -14.5782 -14.5782 -14.4280 -14.4280 -14.4019
   -14.3330 -14.3330  -1.8559   1.0359   5.9099   5.9099

          k = 0.4375-0.4375 1.3125 (  2976 PWs)   bands (ev):

   -14.7164 -14.7077 -14.6326 -14.5700 -14.5650 -14.4415 -14.4399 -14.4181
   -14.3273 -14.3191  -1.6336   0.8342   4.8517   5.7174

     highest occupied level (ev):     6.8984

!    total energy              =    -318.48976202 Ry
     Harris-Foulkes estimate   =    -318.48976202 Ry
     estimated scf accuracy    <          2.5E-09 Ry

     The total energy is the sum of the following terms:

     one-electron contribution =    -162.54058988 Ry
     hartree contribution      =      97.73181584 Ry
     xc contribution           =     -85.95860249 Ry
     ewald contribution        =    -167.72238549 Ry

     convergence has been achieved in   7 iterations

     Writing output data file sn.alpha.12.59.save

     init_run     :      1.55s CPU      1.60s WALL (       1 calls)
     electrons    :     24.04s CPU     24.73s WALL (       1 calls)

     Called by init_run:
     wfcinit      :      1.07s CPU      1.10s WALL (       1 calls)
     potinit      :      0.06s CPU      0.06s WALL (       1 calls)

     Called by electrons:
     c_bands      :     19.54s CPU     19.95s WALL (       7 calls)
     sum_band     :      3.63s CPU      3.78s WALL (       7 calls)
     v_of_rho     :      0.36s CPU      0.38s WALL (       8 calls)
     newd         :      0.55s CPU      0.63s WALL (       8 calls)
     mix_rho      :      0.03s CPU      0.03s WALL (       7 calls)

     Called by c_bands:
     init_us_2    :      0.39s CPU      0.40s WALL (     900 calls)
     cegterg      :     18.82s CPU     19.22s WALL (     420 calls)

     Called by sum_band:
     sum_band:bec :      0.00s CPU      0.00s WALL (     420 calls)
     addusdens    :      0.56s CPU      0.65s WALL (       7 calls)

     Called by *egterg:
     h_psi        :     17.24s CPU     17.65s WALL (    1724 calls)
     s_psi        :      0.23s CPU      0.24s WALL (    1724 calls)
     g_psi        :      0.08s CPU      0.08s WALL (    1244 calls)
     cdiaghg      :      0.74s CPU      0.74s WALL (    1664 calls)

     Called by h_psi:
     h_psi:pot    :     17.11s CPU     17.52s WALL (    1724 calls)
     h_psi:calbec :      0.48s CPU      0.49s WALL (    1724 calls)
     vloc_psi     :     16.31s CPU     16.70s WALL (    1724 calls)
     add_vuspsi   :      0.32s CPU      0.33s WALL (    1724 calls)

     General routines
     calbec       :      0.59s CPU      0.61s WALL (    2144 calls)
     fft          :      0.18s CPU      0.20s WALL (     124 calls)
     ffts         :      0.01s CPU      0.01s WALL (      15 calls)
     fftw         :     15.91s CPU     16.32s WALL (   45626 calls)
     interpolate  :      0.04s CPU      0.04s WALL (      15 calls)
     davcio       :      0.00s CPU      0.00s WALL (      60 calls)

     Parallel routines
     fft_scatter  :      2.07s CPU      2.04s WALL (   45765 calls)

     PWSCF        :    25.75s CPU        27.56s WALL


   This run was terminated on:  16:13:31  11Nov2017            

=------------------------------------------------------------------------------=
   JOB DONE.
=------------------------------------------------------------------------------=
