
     Program PWSCF v.6.1 (svn rev. 13369) starts on 13Nov2017 at 10:25:44 

     This program is part of the open-source Quantum ESPRESSO suite
     for quantum simulation of materials; please cite
         "P. Giannozzi et al., J. Phys.:Condens. Matter 21 395502 (2009);
          URL http://www.quantum-espresso.org", 
     in publications or presentations arising from this work. More details at
     http://www.quantum-espresso.org/quote

     Parallel version (MPI), running on     4 processors
     R & G space division:  proc/nbgrp/npool/nimage =       4
     Waiting for input...
     Reading input from standard input

     Current dimensions of program PWSCF are:
     Max number of different atomic species (ntypx) = 10
     Max number of k-points (npk) =  40000
     Max angular momentum in pseudopotentials (lmaxx) =  3

     Subspace diagonalization in iterative solution of the eigenvalue problem:
     a serial algorithm will be used


     Parallelization info
     --------------------
     sticks:   dense  smooth     PW     G-vecs:    dense   smooth      PW
     Min        1161     465    188                16125     4068    1072
     Max        1162     466    189                16126     4069    1073
     Sum        4645    1861    753                64501    16273    4289



     bravais-lattice index     =            0
     lattice parameter (alat)  =      10.9500  a.u.
     unit-cell volume          =     341.1459 (a.u.)^3
     number of atoms/cell      =            2
     number of atomic types    =            1
     number of electrons       =        28.00
     number of Kohn-Sham states=           18
     kinetic-energy cutoff     =      50.0000  Ry
     charge density cutoff     =     500.0000  Ry
     convergence threshold     =      1.0E-08
     mixing beta               =       0.7000
     number of iterations used =            8  plain     mixing
     Exchange-correlation      =  SLA  PW   PBX  PBC ( 1  4  3  4 0 0)

     celldm(1)=  10.950000  celldm(2)=   0.000000  celldm(3)=   0.000000
     celldm(4)=   0.000000  celldm(5)=   0.000000  celldm(6)=   0.000000

     crystal axes: (cart. coord. in units of alat)
               a(1) = (   0.986837   0.000000   0.000000 )  
               a(2) = (   0.000000   0.986837   0.000000 )  
               a(3) = (   0.493419   0.493419   0.266813 )  

     reciprocal axes: (cart. coord. in units 2 pi/alat)
               b(1) = (  1.013339  0.000000 -1.873974 )  
               b(2) = (  0.000000  1.013339 -1.873974 )  
               b(3) = (  0.000000  0.000000  3.747943 )  


     PseudoPot. # 1 for Sn read from file:
     /home/s1333534/quantum_espresso/qe-6.1/pseudo/sn_pbe_v1.4.uspp.F.UPF
     MD5 check sum: 469debedee59599fedebd795477fea03
     Pseudo is Ultrasoft + core correction, Zval = 14.0
     Generated by new atomic code, or converted to UPF format
     Using radial grid of  891 points,  6 beta functions with: 
                l(1) =   0
                l(2) =   0
                l(3) =   1
                l(4) =   1
                l(5) =   2
                l(6) =   2
     Q(r) pseudized with  8 coefficients,  rinner =    1.350   1.350   1.350
                                                       1.350   1.350

     atomic species   valence    mass     pseudopotential
        Sn            14.00   118.71000     Sn( 1.00)

     No symmetry found



   Cartesian axes

     site n.     atom                  positions (alat units)
         1           Sn  tau(   1) = (   1.0725850   1.3160481   0.0533919  )
         2           Sn  tau(   2) = (   0.5198369   0.2763739   0.0177973  )

     number of k points=   800  Marzari-Vanderbilt smearing, width (Ry)=  0.0200

     Number of k-points >= 100: set verbosity='high' to print them.

     Dense  grid:    64501 G-vectors     FFT dimensions: (  80,  80,  60)

     Smooth grid:    16273 G-vectors     FFT dimensions: (  50,  50,  40)

     Estimated max dynamical RAM per process >     126.51MB

     Estimated total allocated dynamical RAM >     506.02MB

     Initial potential from superposition of free atoms

     starting charge   25.99991, renormalised to   28.00000
     Starting wfc are   18 randomized atomic wfcs

     total cpu time spent up to now is       20.3 secs

     per-process dynamical memory:   141.4 Mb

     Self-consistent Calculation

     iteration #  1     ecut=    50.00 Ry     beta=0.70
     Davidson diagonalization with overlap
     ethr =  1.00E-02,  avg # of iterations =  4.0

     total cpu time spent up to now is       99.6 secs

     total energy              =    -317.50087962 Ry
     Harris-Foulkes estimate   =    -319.42876505 Ry
     estimated scf accuracy    <       2.36187948 Ry

     iteration #  2     ecut=    50.00 Ry     beta=0.70
     Davidson diagonalization with overlap
     ethr =  8.44E-03,  avg # of iterations =  2.5

     total cpu time spent up to now is      167.0 secs

     total energy              =    -318.33530821 Ry
     Harris-Foulkes estimate   =    -318.62632489 Ry
     estimated scf accuracy    <       0.42835400 Ry

     iteration #  3     ecut=    50.00 Ry     beta=0.70
     Davidson diagonalization with overlap
     ethr =  1.53E-03,  avg # of iterations =  2.0

     total cpu time spent up to now is      233.6 secs

     total energy              =    -318.42402112 Ry
     Harris-Foulkes estimate   =    -318.42567944 Ry
     estimated scf accuracy    <       0.00281506 Ry

     iteration #  4     ecut=    50.00 Ry     beta=0.70
     Davidson diagonalization with overlap
     ethr =  1.01E-05,  avg # of iterations =  3.6

     total cpu time spent up to now is      306.3 secs

     total energy              =    -318.42462173 Ry
     Harris-Foulkes estimate   =    -318.42477422 Ry
     estimated scf accuracy    <       0.00030559 Ry

     iteration #  5     ecut=    50.00 Ry     beta=0.70
     Davidson diagonalization with overlap
     ethr =  1.09E-06,  avg # of iterations =  2.6

     total cpu time spent up to now is      363.8 secs

     total energy              =    -318.42466993 Ry
     Harris-Foulkes estimate   =    -318.42467987 Ry
     estimated scf accuracy    <       0.00001748 Ry

     iteration #  6     ecut=    50.00 Ry     beta=0.70
     Davidson diagonalization with overlap
     ethr =  6.24E-08,  avg # of iterations =  3.0

     total cpu time spent up to now is      437.1 secs

     total energy              =    -318.42467637 Ry
     Harris-Foulkes estimate   =    -318.42467680 Ry
     estimated scf accuracy    <       0.00000089 Ry

     iteration #  7     ecut=    50.00 Ry     beta=0.70
     Davidson diagonalization with overlap
     ethr =  3.19E-09,  avg # of iterations =  2.9

     total cpu time spent up to now is      501.8 secs

     total energy              =    -318.42467652 Ry
     Harris-Foulkes estimate   =    -318.42467663 Ry
     estimated scf accuracy    <       0.00000017 Ry

     iteration #  8     ecut=    50.00 Ry     beta=0.70
     Davidson diagonalization with overlap
     ethr =  6.03E-10,  avg # of iterations =  2.8

     total cpu time spent up to now is      567.4 secs

     End of self-consistent calculation

     Number of k-points >= 100: set verbosity='high' to print the bands.

     the Fermi energy is    11.8879 ev

!    total energy              =    -318.42467657 Ry
     Harris-Foulkes estimate   =    -318.42467657 Ry
     estimated scf accuracy    <          4.0E-09 Ry

     The total energy is the sum of the following terms:

     one-electron contribution =    -108.80391445 Ry
     hartree contribution      =      75.85972924 Ry
     xc contribution           =     -86.16099130 Ry
     ewald contribution        =    -199.31951730 Ry
     smearing contrib. (-TS)   =       0.00001724 Ry

     convergence has been achieved in   8 iterations

     Writing output data file sn.beta.10.95.save

     init_run     :     19.75s CPU     20.24s WALL (       1 calls)
     electrons    :    534.69s CPU    547.15s WALL (       1 calls)

     Called by init_run:
     wfcinit      :     18.69s CPU     19.16s WALL (       1 calls)
     potinit      :      0.29s CPU      0.29s WALL (       1 calls)

     Called by electrons:
     c_bands      :    449.02s CPU    459.59s WALL (       8 calls)
     sum_band     :     84.03s CPU     85.78s WALL (       8 calls)
     v_of_rho     :      0.85s CPU      0.90s WALL (       9 calls)
     newd         :      0.83s CPU      0.88s WALL (       9 calls)
     mix_rho      :      0.08s CPU      0.08s WALL (       8 calls)

     Called by c_bands:
     init_us_2    :      4.12s CPU      4.17s WALL (   13600 calls)
     cegterg      :    441.26s CPU    451.71s WALL (    6400 calls)

     Called by sum_band:
     sum_band:bec :      0.07s CPU      0.09s WALL (    6400 calls)
     addusdens    :      0.92s CPU      1.03s WALL (       8 calls)

     Called by *egterg:
     h_psi        :    417.71s CPU    427.91s WALL (   25996 calls)
     s_psi        :      2.77s CPU      2.81s WALL (   25996 calls)
     g_psi        :      0.89s CPU      0.91s WALL (   18796 calls)
     cdiaghg      :     16.40s CPU     16.64s WALL (   25196 calls)

     Called by h_psi:
     h_psi:pot    :    415.99s CPU    426.16s WALL (   25996 calls)
     h_psi:calbec :      6.69s CPU      6.79s WALL (   25996 calls)
     vloc_psi     :    405.32s CPU    415.27s WALL (   25996 calls)
     add_vuspsi   :      3.96s CPU      4.00s WALL (   25996 calls)

     General routines
     calbec       :      8.98s CPU      9.08s WALL (   32396 calls)
     fft          :      0.59s CPU      0.63s WALL (     140 calls)
     ffts         :      0.01s CPU      0.01s WALL (      17 calls)
     fftw         :    327.67s CPU    335.81s WALL (  802720 calls)
     interpolate  :      0.10s CPU      0.10s WALL (      17 calls)
     davcio       :      0.02s CPU      0.04s WALL (     800 calls)

     Parallel routines
     fft_scatter  :     62.81s CPU     64.72s WALL (  802877 calls)

     PWSCF        :  9m15.52s CPU     9m41.61s WALL


   This run was terminated on:  10:35:26  13Nov2017            

=------------------------------------------------------------------------------=
   JOB DONE.
=------------------------------------------------------------------------------=
