
     Program PWSCF v.6.1 (svn rev. 13369) starts on 13Nov2017 at 10: 6: 0 

     This program is part of the open-source Quantum ESPRESSO suite
     for quantum simulation of materials; please cite
         "P. Giannozzi et al., J. Phys.:Condens. Matter 21 395502 (2009);
          URL http://www.quantum-espresso.org", 
     in publications or presentations arising from this work. More details at
     http://www.quantum-espresso.org/quote

     Parallel version (MPI), running on     4 processors
     R & G space division:  proc/nbgrp/npool/nimage =       4
     Waiting for input...
     Reading input from standard input

     Current dimensions of program PWSCF are:
     Max number of different atomic species (ntypx) = 10
     Max number of k-points (npk) =  40000
     Max angular momentum in pseudopotentials (lmaxx) =  3

     Subspace diagonalization in iterative solution of the eigenvalue problem:
     a serial algorithm will be used


     Parallelization info
     --------------------
     sticks:   dense  smooth     PW     G-vecs:    dense   smooth      PW
     Min        1142     457    187                15652     3958    1063
     Max        1143     458    188                15653     3959    1064
     Sum        4569    1829    749                62609    15833    4253



     bravais-lattice index     =            0
     lattice parameter (alat)  =      10.8500  a.u.
     unit-cell volume          =     331.8846 (a.u.)^3
     number of atoms/cell      =            2
     number of atomic types    =            1
     number of electrons       =        28.00
     number of Kohn-Sham states=           18
     kinetic-energy cutoff     =      50.0000  Ry
     charge density cutoff     =     500.0000  Ry
     convergence threshold     =      1.0E-08
     mixing beta               =       0.7000
     number of iterations used =            8  plain     mixing
     Exchange-correlation      =  SLA  PW   PBX  PBC ( 1  4  3  4 0 0)

     celldm(1)=  10.850000  celldm(2)=   0.000000  celldm(3)=   0.000000
     celldm(4)=   0.000000  celldm(5)=   0.000000  celldm(6)=   0.000000

     crystal axes: (cart. coord. in units of alat)
               a(1) = (   0.986837   0.000000   0.000000 )  
               a(2) = (   0.000000   0.986837   0.000000 )  
               a(3) = (   0.493419   0.493419   0.266813 )  

     reciprocal axes: (cart. coord. in units 2 pi/alat)
               b(1) = (  1.013339  0.000000 -1.873974 )  
               b(2) = (  0.000000  1.013339 -1.873974 )  
               b(3) = (  0.000000  0.000000  3.747943 )  


     PseudoPot. # 1 for Sn read from file:
     /home/s1333534/quantum_espresso/qe-6.1/pseudo/sn_pbe_v1.4.uspp.F.UPF
     MD5 check sum: 469debedee59599fedebd795477fea03
     Pseudo is Ultrasoft + core correction, Zval = 14.0
     Generated by new atomic code, or converted to UPF format
     Using radial grid of  891 points,  6 beta functions with: 
                l(1) =   0
                l(2) =   0
                l(3) =   1
                l(4) =   1
                l(5) =   2
                l(6) =   2
     Q(r) pseudized with  8 coefficients,  rinner =    1.350   1.350   1.350
                                                       1.350   1.350

     atomic species   valence    mass     pseudopotential
        Sn            14.00   118.71000     Sn( 1.00)

     No symmetry found



   Cartesian axes

     site n.     atom                  positions (alat units)
         1           Sn  tau(   1) = (   1.0725850   1.3160481   0.0533919  )
         2           Sn  tau(   2) = (   0.5198369   0.2763739   0.0177973  )

     number of k points=   800  Marzari-Vanderbilt smearing, width (Ry)=  0.0200

     Number of k-points >= 100: set verbosity='high' to print them.

     Dense  grid:    62609 G-vectors     FFT dimensions: (  80,  80,  60)

     Smooth grid:    15833 G-vectors     FFT dimensions: (  50,  50,  40)

     Estimated max dynamical RAM per process >     123.20MB

     Estimated total allocated dynamical RAM >     492.80MB

     Initial potential from superposition of free atoms

     starting charge   25.99991, renormalised to   28.00000
     Starting wfc are   18 randomized atomic wfcs

     total cpu time spent up to now is       20.7 secs

     per-process dynamical memory:   135.6 Mb

     Self-consistent Calculation

     iteration #  1     ecut=    50.00 Ry     beta=0.70
     Davidson diagonalization with overlap
     ethr =  1.00E-02,  avg # of iterations =  4.0

     total cpu time spent up to now is      100.2 secs

     total energy              =    -317.49835894 Ry
     Harris-Foulkes estimate   =    -319.41266238 Ry
     estimated scf accuracy    <       2.34575128 Ry

     iteration #  2     ecut=    50.00 Ry     beta=0.70
     Davidson diagonalization with overlap
     ethr =  8.38E-03,  avg # of iterations =  2.5

     total cpu time spent up to now is      167.5 secs

     total energy              =    -318.32666528 Ry
     Harris-Foulkes estimate   =    -318.61483099 Ry
     estimated scf accuracy    <       0.42421141 Ry

     iteration #  3     ecut=    50.00 Ry     beta=0.70
     Davidson diagonalization with overlap
     ethr =  1.52E-03,  avg # of iterations =  2.0

     total cpu time spent up to now is      232.5 secs

     total energy              =    -318.41450284 Ry
     Harris-Foulkes estimate   =    -318.41613280 Ry
     estimated scf accuracy    <       0.00277242 Ry

     iteration #  4     ecut=    50.00 Ry     beta=0.70
     Davidson diagonalization with overlap
     ethr =  9.90E-06,  avg # of iterations =  3.7

     total cpu time spent up to now is      306.8 secs

     total energy              =    -318.41509749 Ry
     Harris-Foulkes estimate   =    -318.41524541 Ry
     estimated scf accuracy    <       0.00029717 Ry

     iteration #  5     ecut=    50.00 Ry     beta=0.70
     Davidson diagonalization with overlap
     ethr =  1.06E-06,  avg # of iterations =  2.6

     total cpu time spent up to now is      361.4 secs

     total energy              =    -318.41514427 Ry
     Harris-Foulkes estimate   =    -318.41515402 Ry
     estimated scf accuracy    <       0.00001721 Ry

     iteration #  6     ecut=    50.00 Ry     beta=0.70
     Davidson diagonalization with overlap
     ethr =  6.15E-08,  avg # of iterations =  3.0

     total cpu time spent up to now is      429.9 secs

     total energy              =    -318.41515050 Ry
     Harris-Foulkes estimate   =    -318.41515093 Ry
     estimated scf accuracy    <       0.00000087 Ry

     iteration #  7     ecut=    50.00 Ry     beta=0.70
     Davidson diagonalization with overlap
     ethr =  3.10E-09,  avg # of iterations =  2.9

     total cpu time spent up to now is      493.9 secs

     total energy              =    -318.41515066 Ry
     Harris-Foulkes estimate   =    -318.41515077 Ry
     estimated scf accuracy    <       0.00000017 Ry

     iteration #  8     ecut=    50.00 Ry     beta=0.70
     Davidson diagonalization with overlap
     ethr =  5.95E-10,  avg # of iterations =  2.5

     total cpu time spent up to now is      558.9 secs

     End of self-consistent calculation

     Number of k-points >= 100: set verbosity='high' to print the bands.

     the Fermi energy is    12.3441 ev

!    total energy              =    -318.41515070 Ry
     Harris-Foulkes estimate   =    -318.41515071 Ry
     estimated scf accuracy    <          3.3E-09 Ry

     The total energy is the sum of the following terms:

     one-electron contribution =    -105.91059424 Ry
     hartree contribution      =      74.84837706 Ry
     xc contribution           =     -86.19638232 Ry
     ewald contribution        =    -201.15656354 Ry
     smearing contrib. (-TS)   =       0.00001233 Ry

     convergence has been achieved in   8 iterations

     Writing output data file sn.beta.10.85.save

     init_run     :     20.19s CPU     20.67s WALL (       1 calls)
     electrons    :    526.29s CPU    538.18s WALL (       1 calls)

     Called by init_run:
     wfcinit      :     19.16s CPU     19.62s WALL (       1 calls)
     potinit      :      0.28s CPU      0.29s WALL (       1 calls)

     Called by electrons:
     c_bands      :    441.27s CPU    451.31s WALL (       8 calls)
     sum_band     :     83.40s CPU     85.11s WALL (       8 calls)
     v_of_rho     :      0.85s CPU      0.90s WALL (       9 calls)
     newd         :      0.80s CPU      0.84s WALL (       9 calls)
     mix_rho      :      0.08s CPU      0.08s WALL (       8 calls)

     Called by c_bands:
     init_us_2    :      3.96s CPU      4.04s WALL (   13600 calls)
     cegterg      :    433.75s CPU    443.66s WALL (    6400 calls)

     Called by sum_band:
     sum_band:bec :      0.09s CPU      0.10s WALL (    6400 calls)
     addusdens    :      0.89s CPU      0.99s WALL (       8 calls)

     Called by *egterg:
     h_psi        :    411.77s CPU    421.53s WALL (   25765 calls)
     s_psi        :      2.63s CPU      2.65s WALL (   25765 calls)
     g_psi        :      0.85s CPU      0.86s WALL (   18565 calls)
     cdiaghg      :     16.29s CPU     16.49s WALL (   24965 calls)

     Called by h_psi:
     h_psi:pot    :    410.18s CPU    419.92s WALL (   25765 calls)
     h_psi:calbec :      6.38s CPU      6.45s WALL (   25765 calls)
     vloc_psi     :    400.02s CPU    409.58s WALL (   25765 calls)
     add_vuspsi   :      3.77s CPU      3.79s WALL (   25765 calls)

     General routines
     calbec       :      8.55s CPU      8.64s WALL (   32165 calls)
     fft          :      0.54s CPU      0.59s WALL (     140 calls)
     ffts         :      0.01s CPU      0.01s WALL (      17 calls)
     fftw         :    322.08s CPU    330.00s WALL (  803242 calls)
     interpolate  :      0.09s CPU      0.10s WALL (      17 calls)
     davcio       :      0.02s CPU      0.04s WALL (     800 calls)

     Parallel routines
     fft_scatter  :     55.89s CPU     57.56s WALL (  803399 calls)

     PWSCF        :  9m 7.55s CPU     9m40.65s WALL


   This run was terminated on:  10:15:41  13Nov2017            

=------------------------------------------------------------------------------=
   JOB DONE.
=------------------------------------------------------------------------------=
