
     Program PWSCF v.6.1 (svn rev. 13369) starts on 11Nov2017 at 16:35:47 

     This program is part of the open-source Quantum ESPRESSO suite
     for quantum simulation of materials; please cite
         "P. Giannozzi et al., J. Phys.:Condens. Matter 21 395502 (2009);
          URL http://www.quantum-espresso.org", 
     in publications or presentations arising from this work. More details at
     http://www.quantum-espresso.org/quote

     Parallel version (MPI), running on     4 processors
     R & G space division:  proc/nbgrp/npool/nimage =       4
     Waiting for input...
     Reading input from standard input
     Message from routine read_cards :
     DEPRECATED: no units specified in ATOMIC_POSITIONS card
     Message from routine read_cards :
     ATOMIC_POSITIONS: units set to alat

     Current dimensions of program PWSCF are:
     Max number of different atomic species (ntypx) = 10
     Max number of k-points (npk) =  40000
     Max angular momentum in pseudopotentials (lmaxx) =  3

     Subspace diagonalization in iterative solution of the eigenvalue problem:
     a serial algorithm will be used


     Parallelization info
     --------------------
     sticks:   dense  smooth     PW     G-vecs:    dense   smooth      PW
     Min         543     267     84                16729     5875    1003
     Max         544     268     85                16732     5880    1005
     Sum        2173    1069    337                66923    23505    4015



     bravais-lattice index     =            2
     lattice parameter (alat)  =      12.5520  a.u.
     unit-cell volume          =     494.4004 (a.u.)^3
     number of atoms/cell      =            2
     number of atomic types    =            1
     number of electrons       =        28.00
     number of Kohn-Sham states=           14
     kinetic-energy cutoff     =      50.0000  Ry
     charge density cutoff     =     400.0000  Ry
     convergence threshold     =      1.0E-08
     mixing beta               =       0.7000
     number of iterations used =            8  plain     mixing
     Exchange-correlation      =  SLA  PW   PBX  PBC ( 1  4  3  4 0 0)

     celldm(1)=  12.552000  celldm(2)=   0.000000  celldm(3)=   0.000000
     celldm(4)=   0.000000  celldm(5)=   0.000000  celldm(6)=   0.000000

     crystal axes: (cart. coord. in units of alat)
               a(1) = (  -0.500000   0.000000   0.500000 )  
               a(2) = (   0.000000   0.500000   0.500000 )  
               a(3) = (  -0.500000   0.500000   0.000000 )  

     reciprocal axes: (cart. coord. in units 2 pi/alat)
               b(1) = ( -1.000000 -1.000000  1.000000 )  
               b(2) = (  1.000000  1.000000  1.000000 )  
               b(3) = ( -1.000000  1.000000 -1.000000 )  


     PseudoPot. # 1 for Sn read from file:
     /home/s1333534/quantum_espresso/qe-6.1/pseudo/sn_pbe_v1.4.uspp.F.UPF
     MD5 check sum: 469debedee59599fedebd795477fea03
     Pseudo is Ultrasoft + core correction, Zval = 14.0
     Generated by new atomic code, or converted to UPF format
     Using radial grid of  891 points,  6 beta functions with: 
                l(1) =   0
                l(2) =   0
                l(3) =   1
                l(4) =   1
                l(5) =   2
                l(6) =   2
     Q(r) pseudized with  8 coefficients,  rinner =    1.350   1.350   1.350
                                                       1.350   1.350

     atomic species   valence    mass     pseudopotential
        Sn            14.00   118.71000     Sn( 1.00)

     48 Sym. Ops., with inversion, found (24 have fractional translation)



   Cartesian axes

     site n.     atom                  positions (alat units)
         1           Sn  tau(   1) = (   0.0000000   0.0000000   0.0000000  )
         2           Sn  tau(   2) = (   0.2500000   0.2500000   0.2500000  )

     number of k points=   182

     Number of k-points >= 100: set verbosity='high' to print them.

     Dense  grid:    66923 G-vectors     FFT dimensions: (  60,  60,  60)

     Smooth grid:    23505 G-vectors     FFT dimensions: (  40,  40,  40)

     Estimated max dynamical RAM per process >      40.95MB

     Estimated total allocated dynamical RAM >     163.79MB

     Initial potential from superposition of free atoms

     starting charge   25.99991, renormalised to   28.00000
     Starting wfc are   18 randomized atomic wfcs

     total cpu time spent up to now is        3.0 secs

     per-process dynamical memory:    45.8 Mb

     Self-consistent Calculation

     iteration #  1     ecut=    50.00 Ry     beta=0.70
     Davidson diagonalization with overlap
     ethr =  1.00E-02,  avg # of iterations =  2.6

     total cpu time spent up to now is       10.3 secs

     total energy              =    -317.48558264 Ry
     Harris-Foulkes estimate   =    -319.54804774 Ry
     estimated scf accuracy    <       2.51291002 Ry

     iteration #  2     ecut=    50.00 Ry     beta=0.70
     Davidson diagonalization with overlap
     ethr =  8.97E-03,  avg # of iterations =  3.0

     total cpu time spent up to now is       18.4 secs

     total energy              =    -318.39379619 Ry
     Harris-Foulkes estimate   =    -318.71196819 Ry
     estimated scf accuracy    <       0.47377228 Ry

     iteration #  3     ecut=    50.00 Ry     beta=0.70
     Davidson diagonalization with overlap
     ethr =  1.69E-03,  avg # of iterations =  2.0

     total cpu time spent up to now is       25.4 secs

     total energy              =    -318.48886389 Ry
     Harris-Foulkes estimate   =    -318.49043484 Ry
     estimated scf accuracy    <       0.00287860 Ry

     iteration #  4     ecut=    50.00 Ry     beta=0.70
     Davidson diagonalization with overlap
     ethr =  1.03E-05,  avg # of iterations =  3.0

     total cpu time spent up to now is       33.0 secs

     total energy              =    -318.48975470 Ry
     Harris-Foulkes estimate   =    -318.48987194 Ry
     estimated scf accuracy    <       0.00017376 Ry

     iteration #  5     ecut=    50.00 Ry     beta=0.70
     Davidson diagonalization with overlap
     ethr =  6.21E-07,  avg # of iterations =  3.0

     total cpu time spent up to now is       40.5 secs

     total energy              =    -318.48980781 Ry
     Harris-Foulkes estimate   =    -318.48980850 Ry
     estimated scf accuracy    <       0.00000144 Ry

     iteration #  6     ecut=    50.00 Ry     beta=0.70
     Davidson diagonalization with overlap
     ethr =  5.16E-09,  avg # of iterations =  4.0

     total cpu time spent up to now is       48.5 secs

     total energy              =    -318.48980858 Ry
     Harris-Foulkes estimate   =    -318.48980863 Ry
     estimated scf accuracy    <       0.00000008 Ry

     iteration #  7     ecut=    50.00 Ry     beta=0.70
     Davidson diagonalization with overlap
     ethr =  2.74E-10,  avg # of iterations =  3.1

     total cpu time spent up to now is       55.9 secs

     End of self-consistent calculation

     Number of k-points >= 100: set verbosity='high' to print the bands.

     highest occupied level (ev):     7.0435

!    total energy              =    -318.48980861 Ry
     Harris-Foulkes estimate   =    -318.48980861 Ry
     estimated scf accuracy    <          2.4E-09 Ry

     The total energy is the sum of the following terms:

     one-electron contribution =    -161.70963540 Ry
     hartree contribution      =      97.41690694 Ry
     xc contribution           =     -85.96693090 Ry
     ewald contribution        =    -168.23014924 Ry

     convergence has been achieved in   7 iterations

     Writing output data file sn.alpha.12.552.save

     init_run     :      2.85s CPU      2.94s WALL (       1 calls)
     electrons    :     51.42s CPU     52.93s WALL (       1 calls)

     Called by init_run:
     wfcinit      :      2.36s CPU      2.43s WALL (       1 calls)
     potinit      :      0.06s CPU      0.06s WALL (       1 calls)

     Called by electrons:
     c_bands      :     43.56s CPU     44.71s WALL (       7 calls)
     sum_band     :      7.02s CPU      7.28s WALL (       7 calls)
     v_of_rho     :      0.36s CPU      0.37s WALL (       8 calls)
     newd         :      0.52s CPU      0.58s WALL (       8 calls)
     mix_rho      :      0.03s CPU      0.03s WALL (       7 calls)

     Called by c_bands:
     init_us_2    :      1.18s CPU      1.20s WALL (    2730 calls)
     cegterg      :     41.37s CPU     42.51s WALL (    1274 calls)

     Called by sum_band:
     sum_band:bec :      0.01s CPU      0.01s WALL (    1274 calls)
     addusdens    :      0.53s CPU      0.63s WALL (       7 calls)

     Called by *egterg:
     h_psi        :     35.81s CPU     36.92s WALL (    5222 calls)
     s_psi        :      0.73s CPU      0.74s WALL (    5222 calls)
     g_psi        :      0.23s CPU      0.23s WALL (    3766 calls)
     cdiaghg      :      2.20s CPU      2.20s WALL (    5040 calls)

     Called by h_psi:
     h_psi:pot    :     35.40s CPU     36.51s WALL (    5222 calls)
     h_psi:calbec :      1.49s CPU      1.51s WALL (    5222 calls)
     vloc_psi     :     32.83s CPU     33.87s WALL (    5222 calls)
     add_vuspsi   :      1.08s CPU      1.10s WALL (    5222 calls)

     General routines
     calbec       :      1.88s CPU      1.91s WALL (    6496 calls)
     fft          :      0.17s CPU      0.18s WALL (     124 calls)
     ffts         :      0.01s CPU      0.01s WALL (      15 calls)
     fftw         :     29.86s CPU     30.96s WALL (  138344 calls)
     interpolate  :      0.04s CPU      0.04s WALL (      15 calls)
     davcio       :      0.00s CPU      0.01s WALL (     182 calls)

     Parallel routines
     fft_scatter  :      5.51s CPU      5.33s WALL (  138483 calls)

     PWSCF        :    54.54s CPU        59.33s WALL


   This run was terminated on:  16:36:46  11Nov2017            

=------------------------------------------------------------------------------=
   JOB DONE.
=------------------------------------------------------------------------------=
