
     Program PWSCF v.6.1 (svn rev. 13369) starts on 13Nov2017 at 10: 1:39 

     This program is part of the open-source Quantum ESPRESSO suite
     for quantum simulation of materials; please cite
         "P. Giannozzi et al., J. Phys.:Condens. Matter 21 395502 (2009);
          URL http://www.quantum-espresso.org", 
     in publications or presentations arising from this work. More details at
     http://www.quantum-espresso.org/quote

     Parallel version (MPI), running on     4 processors
     R & G space division:  proc/nbgrp/npool/nimage =       4
     Waiting for input...
     Reading input from standard input

     Current dimensions of program PWSCF are:
     Max number of different atomic species (ntypx) = 10
     Max number of k-points (npk) =  40000
     Max angular momentum in pseudopotentials (lmaxx) =  3

     Subspace diagonalization in iterative solution of the eigenvalue problem:
     a serial algorithm will be used


     Parallelization info
     --------------------
     sticks:   dense  smooth     PW     G-vecs:    dense   smooth      PW
     Min        1177     471    192                16550     4202    1090
     Max        1178     472    193                16552     4203    1091
     Sum        4709    1885    769                66205    16809    4361



     bravais-lattice index     =            0
     lattice parameter (alat)  =      11.0500  a.u.
     unit-cell volume          =     350.5780 (a.u.)^3
     number of atoms/cell      =            2
     number of atomic types    =            1
     number of electrons       =        28.00
     number of Kohn-Sham states=           18
     kinetic-energy cutoff     =      50.0000  Ry
     charge density cutoff     =     500.0000  Ry
     convergence threshold     =      1.0E-08
     mixing beta               =       0.7000
     number of iterations used =            8  plain     mixing
     Exchange-correlation      =  SLA  PW   PBX  PBC ( 1  4  3  4 0 0)

     celldm(1)=  11.050000  celldm(2)=   0.000000  celldm(3)=   0.000000
     celldm(4)=   0.000000  celldm(5)=   0.000000  celldm(6)=   0.000000

     crystal axes: (cart. coord. in units of alat)
               a(1) = (   0.986837   0.000000   0.000000 )  
               a(2) = (   0.000000   0.986837   0.000000 )  
               a(3) = (   0.493419   0.493419   0.266813 )  

     reciprocal axes: (cart. coord. in units 2 pi/alat)
               b(1) = (  1.013339  0.000000 -1.873974 )  
               b(2) = (  0.000000  1.013339 -1.873974 )  
               b(3) = (  0.000000  0.000000  3.747943 )  


     PseudoPot. # 1 for Sn read from file:
     /home/s1333534/quantum_espresso/qe-6.1/pseudo/sn_pbe_v1.4.uspp.F.UPF
     MD5 check sum: 469debedee59599fedebd795477fea03
     Pseudo is Ultrasoft + core correction, Zval = 14.0
     Generated by new atomic code, or converted to UPF format
     Using radial grid of  891 points,  6 beta functions with: 
                l(1) =   0
                l(2) =   0
                l(3) =   1
                l(4) =   1
                l(5) =   2
                l(6) =   2
     Q(r) pseudized with  8 coefficients,  rinner =    1.350   1.350   1.350
                                                       1.350   1.350

     atomic species   valence    mass     pseudopotential
        Sn            14.00   118.71000     Sn( 1.00)

     No symmetry found



   Cartesian axes

     site n.     atom                  positions (alat units)
         1           Sn  tau(   1) = (   1.0725850   1.3160481   0.0533919  )
         2           Sn  tau(   2) = (   0.5198369   0.2763739   0.0177973  )

     number of k points=   800  Marzari-Vanderbilt smearing, width (Ry)=  0.0200

     Number of k-points >= 100: set verbosity='high' to print them.

     Dense  grid:    66205 G-vectors     FFT dimensions: (  80,  80,  60)

     Smooth grid:    16809 G-vectors     FFT dimensions: (  50,  50,  40)

     Estimated max dynamical RAM per process >     129.79MB

     Estimated total allocated dynamical RAM >     519.17MB

     Initial potential from superposition of free atoms

     starting charge   25.99991, renormalised to   28.00000
     Starting wfc are   18 randomized atomic wfcs

     total cpu time spent up to now is       24.9 secs

     per-process dynamical memory:   142.2 Mb

     Self-consistent Calculation

     iteration #  1     ecut=    50.00 Ry     beta=0.70
     Davidson diagonalization with overlap
     ethr =  1.00E-02,  avg # of iterations =  4.0

     total cpu time spent up to now is      112.7 secs

     total energy              =    -317.50211970 Ry
     Harris-Foulkes estimate   =    -319.44319424 Ry
     estimated scf accuracy    <       2.37754067 Ry

     iteration #  2     ecut=    50.00 Ry     beta=0.70
     Davidson diagonalization with overlap
     ethr =  8.49E-03,  avg # of iterations =  2.5

     total cpu time spent up to now is      195.4 secs

     total energy              =    -318.34243975 Ry
     Harris-Foulkes estimate   =    -318.63618701 Ry
     estimated scf accuracy    <       0.43230854 Ry

     iteration #  3     ecut=    50.00 Ry     beta=0.70
     Davidson diagonalization with overlap
     ethr =  1.54E-03,  avg # of iterations =  2.0

     total cpu time spent up to now is      276.2 secs

     total energy              =    -318.43199453 Ry
     Harris-Foulkes estimate   =    -318.43367984 Ry
     estimated scf accuracy    <       0.00285589 Ry

     iteration #  4     ecut=    50.00 Ry     beta=0.70
     Davidson diagonalization with overlap
     ethr =  1.02E-05,  avg # of iterations =  3.6

     total cpu time spent up to now is      370.6 secs

     total energy              =    -318.43260169 Ry
     Harris-Foulkes estimate   =    -318.43275891 Ry
     estimated scf accuracy    <       0.00031434 Ry

     iteration #  5     ecut=    50.00 Ry     beta=0.70
     Davidson diagonalization with overlap
     ethr =  1.12E-06,  avg # of iterations =  2.6

     total cpu time spent up to now is      443.5 secs

     total energy              =    -318.43265141 Ry
     Harris-Foulkes estimate   =    -318.43266153 Ry
     estimated scf accuracy    <       0.00001773 Ry

     iteration #  6     ecut=    50.00 Ry     beta=0.70
     Davidson diagonalization with overlap
     ethr =  6.33E-08,  avg # of iterations =  3.0

     total cpu time spent up to now is      528.1 secs

     total energy              =    -318.43265803 Ry
     Harris-Foulkes estimate   =    -318.43265846 Ry
     estimated scf accuracy    <       0.00000091 Ry

     iteration #  7     ecut=    50.00 Ry     beta=0.70
     Davidson diagonalization with overlap
     ethr =  3.25E-09,  avg # of iterations =  2.9

     total cpu time spent up to now is      599.3 secs

     total energy              =    -318.43265817 Ry
     Harris-Foulkes estimate   =    -318.43265829 Ry
     estimated scf accuracy    <       0.00000017 Ry

     iteration #  8     ecut=    50.00 Ry     beta=0.70
     Davidson diagonalization with overlap
     ethr =  6.13E-10,  avg # of iterations =  2.9

     total cpu time spent up to now is      687.6 secs

     End of self-consistent calculation

     Number of k-points >= 100: set verbosity='high' to print the bands.

     the Fermi energy is    11.4488 ev

!    total energy              =    -318.43265823 Ry
     Harris-Foulkes estimate   =    -318.43265823 Ry
     estimated scf accuracy    <          4.9E-09 Ry

     The total energy is the sum of the following terms:

     one-electron contribution =    -111.65218322 Ry
     hartree contribution      =      76.86229183 Ry
     xc contribution           =     -86.12706823 Ry
     ewald contribution        =    -197.51572076 Ry
     smearing contrib. (-TS)   =       0.00002215 Ry

     convergence has been achieved in   8 iterations

     Writing output data file sn.beta.11.05.save

     init_run     :     22.73s CPU     24.84s WALL (       1 calls)
     electrons    :    622.70s CPU    662.77s WALL (       1 calls)

     Called by init_run:
     wfcinit      :     21.66s CPU     23.59s WALL (       1 calls)
     potinit      :      0.28s CPU      0.33s WALL (       1 calls)

     Called by electrons:
     c_bands      :    513.84s CPU    546.52s WALL (       8 calls)
     sum_band     :    107.05s CPU    114.18s WALL (       8 calls)
     v_of_rho     :      0.91s CPU      1.02s WALL (       9 calls)
     newd         :      0.90s CPU      1.00s WALL (       9 calls)
     mix_rho      :      0.08s CPU      0.09s WALL (       8 calls)

     Called by c_bands:
     init_us_2    :      3.98s CPU      4.16s WALL (   13600 calls)
     cegterg      :    505.59s CPU    537.79s WALL (    6400 calls)

     Called by sum_band:
     sum_band:bec :      0.07s CPU      0.10s WALL (    6400 calls)
     addusdens    :      0.92s CPU      1.12s WALL (       8 calls)

     Called by *egterg:
     h_psi        :    480.65s CPU    511.55s WALL (   26063 calls)
     s_psi        :      2.55s CPU      2.62s WALL (   26063 calls)
     g_psi        :      0.90s CPU      0.95s WALL (   18863 calls)
     cdiaghg      :     18.24s CPU     19.37s WALL (   25263 calls)

     Called by h_psi:
     h_psi:pot    :    479.30s CPU    510.12s WALL (   26063 calls)
     h_psi:calbec :      8.06s CPU      8.67s WALL (   26063 calls)
     vloc_psi     :    467.86s CPU    497.90s WALL (   26063 calls)
     add_vuspsi   :      3.37s CPU      3.44s WALL (   26063 calls)

     General routines
     calbec       :     10.73s CPU     11.69s WALL (   32463 calls)
     fft          :      0.64s CPU      0.72s WALL (     140 calls)
     ffts         :      0.01s CPU      0.02s WALL (      17 calls)
     fftw         :    373.54s CPU    401.44s WALL (  802590 calls)
     interpolate  :      0.10s CPU      0.12s WALL (      17 calls)
     davcio       :      0.02s CPU      0.04s WALL (     800 calls)

     Parallel routines
     fft_scatter  :    104.49s CPU    119.07s WALL (  802747 calls)

     PWSCF        : 10m46.62s CPU    11m43.04s WALL


   This run was terminated on:  10:13:22  13Nov2017            

=------------------------------------------------------------------------------=
   JOB DONE.
=------------------------------------------------------------------------------=
