
     Program PWSCF v.5.4.0 starts on  6Apr2018 at 23:57: 0 

     This program is part of the open-source Quantum ESPRESSO suite
     for quantum simulation of materials; please cite
         "P. Giannozzi et al., J. Phys.:Condens. Matter 21 395502 (2009);
          URL http://www.quantum-espresso.org", 
     in publications or presentations arising from this work. More details at
     http://www.quantum-espresso.org/quote

     Parallel version (MPI & OpenMP), running on     192 processor cores
     Number of MPI processes:               192
     Threads/MPI process:                     1
     K-points division:     npool     =      24
     R & G space division:  proc/nbgrp/npool/nimage =       8
     Waiting for input...
     Reading input from standard input
     Message from routine read_cards :
     DEPRECATED: no units specified in ATOMIC_POSITIONS card
     Message from routine read_cards :
     ATOMIC_POSITIONS: units set to alat

     Current dimensions of program PWSCF are:
     Max number of different atomic species (ntypx) = 10
     Max number of k-points (npk) =  40000
     Max angular momentum in pseudopotentials (lmaxx) =  3

     Subspace diagonalization in iterative solution of the eigenvalue problem:
     one sub-group per band group will be used
     scalapack distributed-memory algorithm (size of sub-group:  2*  2 procs)

 
     Parallelization info
     --------------------
     sticks:   dense  smooth     PW     G-vecs:    dense   smooth      PW
     Min          26      26     10                  263      263      65
     Max          27      27     11                  266      266      68
     Sum         211     211     85                 2109     2109     531
 


     bravais-lattice index     =            2
     lattice parameter (alat)  =      12.5779  a.u.
     unit-cell volume          =     497.4707 (a.u.)^3
     number of atoms/cell      =            2
     number of atomic types    =            1
     number of electrons       =        28.00
     number of Kohn-Sham states=           14
     kinetic-energy cutoff     =      10.0000  Ry
     charge density cutoff     =      40.0000  Ry
     convergence threshold     =      1.0E-08
     mixing beta               =       0.7000
     number of iterations used =            8  plain     mixing
     Exchange-correlation      =  SLA  PW   PBX  PBC ( 1  4  3  4 0 0)

     celldm(1)=  12.577930  celldm(2)=   0.000000  celldm(3)=   0.000000
     celldm(4)=   0.000000  celldm(5)=   0.000000  celldm(6)=   0.000000

     crystal axes: (cart. coord. in units of alat)
               a(1) = (  -0.500000   0.000000   0.500000 )  
               a(2) = (   0.000000   0.500000   0.500000 )  
               a(3) = (  -0.500000   0.500000   0.000000 )  

     reciprocal axes: (cart. coord. in units 2 pi/alat)
               b(1) = ( -1.000000 -1.000000  1.000000 )  
               b(2) = (  1.000000  1.000000  1.000000 )  
               b(3) = ( -1.000000  1.000000 -1.000000 )  


     PseudoPot. # 1 for Sn read from file:
     ./sn_pbe_v1.4.uspp.F.UPF
     MD5 check sum: 469debedee59599fedebd795477fea03
     Pseudo is Ultrasoft + core correction, Zval = 14.0
     Generated by new atomic code, or converted to UPF format
     Using radial grid of  891 points,  6 beta functions with: 
                l(1) =   0
                l(2) =   0
                l(3) =   1
                l(4) =   1
                l(5) =   2
                l(6) =   2
     Q(r) pseudized with  8 coefficients,  rinner =    1.350   1.350   1.350
                                                       1.350   1.350

     atomic species   valence    mass     pseudopotential
        Sn            14.00   118.71000     Sn( 1.00)

     24 Sym. Ops. (no inversion) found
          (note: 24 additional sym.ops. were found but ignored
           their fractional translations are incommensurate with FFT grid)


   Cartesian axes

     site n.     atom                  positions (alat units)
         1           Sn  tau(   1) = (   0.0000000   0.0000000   0.0000000  )
         2           Sn  tau(   2) = (   0.2500000   0.2500000   0.2500000  )

     number of k points=   408

     Number of k-points >= 100: set verbosity='high' to print them.

     Dense  grid:     2109 G-vectors     FFT dimensions: (  18,  18,  18)

     Largest allocated arrays     est. size (Mb)     dimensions
        Kohn-Sham Wavefunctions         0.01 Mb     (      38,   14)
        NL pseudopotentials             0.02 Mb     (      38,   36)
        Each V/rho on FFT grid          0.01 Mb     (     972)
        Each G-vector array             0.00 Mb     (     266)
        G-vector shells                 0.00 Mb     (      53)
     Largest temporary arrays     est. size (Mb)     dimensions
        Auxiliary wavefunctions         0.03 Mb     (      38,   56)
        Each subspace H/S matrix        0.01 Mb     (      28,   28)
        Each <psi_i|beta_j> matrix      0.01 Mb     (      36,   14)
        Arrays for rho mixing           0.12 Mb     (     972,    8)

     Check: negative/imaginary core charge=   -0.001848    0.000000

     Initial potential from superposition of free atoms
     Check: negative starting charge=   -0.078683

     starting charge   25.99991, renormalised to   28.00000

     negative rho (up, down):  8.474E-02 0.000E+00
     Starting wfc are   18 randomized atomic wfcs

     total cpu time spent up to now is        0.2 secs

     per-process dynamical memory:     8.9 Mb

     Self-consistent Calculation

     iteration #  1     ecut=    10.00 Ry     beta=0.70
     Davidson diagonalization with overlap
     ethr =  1.00E-02,  avg # of iterations =  2.2

     negative rho (up, down):  1.586E-03 0.000E+00

     total cpu time spent up to now is        0.4 secs

     total energy              =    -312.29397757 Ry
     Harris-Foulkes estimate   =    -317.32908831 Ry
     estimated scf accuracy    <       5.85954238 Ry

     iteration #  2     ecut=    10.00 Ry     beta=0.70
     Davidson diagonalization with overlap
     ethr =  1.00E-02,  avg # of iterations =  2.6

     negative rho (up, down):  9.667E-03 0.000E+00

     total cpu time spent up to now is        0.6 secs

     total energy              =    -314.37435972 Ry
     Harris-Foulkes estimate   =    -314.80195592 Ry
     estimated scf accuracy    <       0.58129984 Ry

     iteration #  3     ecut=    10.00 Ry     beta=0.70
     Davidson diagonalization with overlap
     ethr =  2.08E-03,  avg # of iterations =  2.0

     negative rho (up, down):  1.209E-02 0.000E+00

     total cpu time spent up to now is        0.7 secs

     total energy              =    -314.50094333 Ry
     Harris-Foulkes estimate   =    -314.50227308 Ry
     estimated scf accuracy    <       0.00140659 Ry

     iteration #  4     ecut=    10.00 Ry     beta=0.70
     Davidson diagonalization with overlap
     ethr =  5.02E-06,  avg # of iterations =  3.5

     negative rho (up, down):  1.186E-02 0.000E+00

     total cpu time spent up to now is        0.9 secs

     total energy              =    -314.50211233 Ry
     Harris-Foulkes estimate   =    -314.50219037 Ry
     estimated scf accuracy    <       0.00007239 Ry

     iteration #  5     ecut=    10.00 Ry     beta=0.70
     Davidson diagonalization with overlap
     ethr =  2.59E-07,  avg # of iterations =  2.2

     negative rho (up, down):  1.195E-02 0.000E+00

     total cpu time spent up to now is        1.0 secs

     total energy              =    -314.50210431 Ry
     Harris-Foulkes estimate   =    -314.50212682 Ry
     estimated scf accuracy    <       0.00000148 Ry

     iteration #  6     ecut=    10.00 Ry     beta=0.70
     Davidson diagonalization with overlap
     ethr =  5.28E-09,  avg # of iterations =  3.4

     negative rho (up, down):  1.198E-02 0.000E+00

     total cpu time spent up to now is        1.3 secs

     total energy              =    -314.50210084 Ry
     Harris-Foulkes estimate   =    -314.50210484 Ry
     estimated scf accuracy    <       0.00000028 Ry

     iteration #  7     ecut=    10.00 Ry     beta=0.70
     Davidson diagonalization with overlap
     ethr =  1.01E-09,  avg # of iterations =  2.8

     negative rho (up, down):  1.199E-02 0.000E+00

     total cpu time spent up to now is        1.4 secs

     total energy              =    -314.50210105 Ry
     Harris-Foulkes estimate   =    -314.50210090 Ry
     estimated scf accuracy    <       0.00000002 Ry

     iteration #  8     ecut=    10.00 Ry     beta=0.70
     Davidson diagonalization with overlap
     ethr =  7.56E-11,  avg # of iterations =  3.0

     negative rho (up, down):  1.199E-02 0.000E+00

     total cpu time spent up to now is        1.6 secs

     End of self-consistent calculation

     Number of k-points >= 100: set verbosity='high' to print the bands.

     highest occupied level (ev):     6.8028

!    total energy              =    -314.50210105 Ry
     Harris-Foulkes estimate   =    -314.50210105 Ry
     estimated scf accuracy    <          1.9E-10 Ry

     The total energy is the sum of the following terms:

     one-electron contribution =    -150.79450731 Ry
     hartree contribution      =      88.82859307 Ry
     xc contribution           =     -84.65284934 Ry
     ewald contribution        =    -167.88333747 Ry

     convergence has been achieved in   8 iterations

     negative rho (up, down):  1.199E-02 0.000E+00

     Forces acting on atoms (Ry/au):

     atom    1 type  1   force =    -0.00000000   -0.00000000    0.00000000
     atom    2 type  1   force =    -0.00000000   -0.00000000    0.00000000

     Total force =     0.000000     Total SCF correction =     0.000000


     entering subroutine stress ...


     negative rho (up, down):  1.199E-02 0.000E+00
          total   stress  (Ry/bohr**3)                   (kbar)     P=-6413.24
  -0.04359635  -0.00000000   0.00000000      -6413.24     -0.00      0.00
  -0.00000000  -0.04359635  -0.00000000         -0.00  -6413.24     -0.00
   0.00000000  -0.00000000  -0.04359635          0.00     -0.00  -6413.24


     Writing output data file sn.alpha.save
 
     init_run     :      0.07s CPU      0.08s WALL (       1 calls)
     electrons    :      1.27s CPU      1.39s WALL (       1 calls)
     forces       :      0.01s CPU      0.01s WALL (       1 calls)
     stress       :      0.02s CPU      0.02s WALL (       1 calls)

     Called by init_run:
     wfcinit      :      0.03s CPU      0.04s WALL (       1 calls)
     potinit      :      0.00s CPU      0.00s WALL (       1 calls)

     Called by electrons:
     c_bands      :      1.20s CPU      1.25s WALL (       8 calls)
     sum_band     :      0.06s CPU      0.07s WALL (       8 calls)
     v_of_rho     :      0.00s CPU      0.01s WALL (       9 calls)
     newd         :      0.00s CPU      0.01s WALL (       9 calls)
     mix_rho      :      0.00s CPU      0.00s WALL (       8 calls)

     Called by c_bands:
     init_us_2    :      0.00s CPU      0.01s WALL (     323 calls)
     cegterg      :      1.08s CPU      1.11s WALL (     136 calls)

     Called by sum_band:
     sum_band:bec :      0.00s CPU      0.00s WALL (     136 calls)
     addusdens    :      0.01s CPU      0.01s WALL (       8 calls)

     Called by *egterg:
     h_psi        :      0.34s CPU      0.31s WALL (     641 calls)
     s_psi        :      0.00s CPU      0.01s WALL (     641 calls)
     g_psi        :      0.00s CPU      0.00s WALL (     488 calls)
     cdiaghg      :      0.67s CPU      0.72s WALL (     624 calls)

     Called by h_psi:
     add_vuspsi   :      0.02s CPU      0.01s WALL (     641 calls)

     General routines
     calbec       :      0.04s CPU      0.03s WALL (     862 calls)
     fft          :      0.01s CPU      0.01s WALL (     141 calls)
     fftw         :      0.31s CPU      0.29s WALL (   12996 calls)
     davcio       :      0.00s CPU      0.00s WALL (      17 calls)
 
     Parallel routines
     fft_scatter  :      0.16s CPU      0.15s WALL (   13137 calls)
 
     PWSCF        :     1.76s CPU         6.93s WALL

 
   This run was terminated on:  23:57: 7   6Apr2018            

=------------------------------------------------------------------------------=
   JOB DONE.
=------------------------------------------------------------------------------=
Application 30443814 resources: utime ~1332s, stime ~27s, Rss ~21052, inblocks ~1800050, outblocks ~1450748
