
     Program PWSCF v.5.4.0 starts on  9Apr2018 at 16:24:15 

     This program is part of the open-source Quantum ESPRESSO suite
     for quantum simulation of materials; please cite
         "P. Giannozzi et al., J. Phys.:Condens. Matter 21 395502 (2009);
          URL http://www.quantum-espresso.org", 
     in publications or presentations arising from this work. More details at
     http://www.quantum-espresso.org/quote

     Parallel version (MPI & OpenMP), running on     384 processor cores
     Number of MPI processes:               384
     Threads/MPI process:                     1
     K-points division:     npool     =      24
     R & G space division:  proc/nbgrp/npool/nimage =      16
     Waiting for input...
     Reading input from standard input
     Message from routine read_cards :
     DEPRECATED: no units specified in ATOMIC_POSITIONS card
     Message from routine read_cards :
     ATOMIC_POSITIONS: units set to alat

     Current dimensions of program PWSCF are:
     Max number of different atomic species (ntypx) = 10
     Max number of k-points (npk) =  40000
     Max angular momentum in pseudopotentials (lmaxx) =  3

     Subspace diagonalization in iterative solution of the eigenvalue problem:
     one sub-group per band group will be used
     scalapack distributed-memory algorithm (size of sub-group:  2*  2 procs)

 
     Parallelization info
     --------------------
     sticks:   dense  smooth     PW     G-vecs:    dense   smooth      PW
     Min          29      29     10                  428      428      84
     Max          30      30     11                  431      431      86
     Sum         475     475    163                 6879     6879    1363
 


     bravais-lattice index     =            2
     lattice parameter (alat)  =      12.5779  a.u.
     unit-cell volume          =     497.4707 (a.u.)^3
     number of atoms/cell      =            2
     number of atomic types    =            1
     number of electrons       =        28.00
     number of Kohn-Sham states=           18
     kinetic-energy cutoff     =      22.0000  Ry
     charge density cutoff     =      88.0000  Ry
     convergence threshold     =      1.0E-08
     mixing beta               =       0.7000
     number of iterations used =            8  plain     mixing
     Exchange-correlation      =  SLA  PW   PBX  PBC ( 1  4  3  4 0 0)

     celldm(1)=  12.577930  celldm(2)=   0.000000  celldm(3)=   0.000000
     celldm(4)=   0.000000  celldm(5)=   0.000000  celldm(6)=   0.000000

     crystal axes: (cart. coord. in units of alat)
               a(1) = (  -0.500000   0.000000   0.500000 )  
               a(2) = (   0.000000   0.500000   0.500000 )  
               a(3) = (  -0.500000   0.500000   0.000000 )  

     reciprocal axes: (cart. coord. in units 2 pi/alat)
               b(1) = ( -1.000000 -1.000000  1.000000 )  
               b(2) = (  1.000000  1.000000  1.000000 )  
               b(3) = ( -1.000000  1.000000 -1.000000 )  


     PseudoPot. # 1 for Sn read from file:
     ./sn_pbe_v1.4.uspp.F.UPF
     MD5 check sum: 469debedee59599fedebd795477fea03
     Pseudo is Ultrasoft + core correction, Zval = 14.0
     Generated by new atomic code, or converted to UPF format
     Using radial grid of  891 points,  6 beta functions with: 
                l(1) =   0
                l(2) =   0
                l(3) =   1
                l(4) =   1
                l(5) =   2
                l(6) =   2
     Q(r) pseudized with  8 coefficients,  rinner =    1.350   1.350   1.350
                                                       1.350   1.350

     atomic species   valence    mass     pseudopotential
        Sn            14.00   118.71000     Sn( 1.00)

     24 Sym. Ops. (no inversion) found
          (note: 24 additional sym.ops. were found but ignored
           their fractional translations are incommensurate with FFT grid)


   Cartesian axes

     site n.     atom                  positions (alat units)
         1           Sn  tau(   1) = (   0.0000000   0.0000000   0.0000000  )
         2           Sn  tau(   2) = (   0.2500000   0.2500000   0.2500000  )

     number of k points=   408  Marzari-Vanderbilt smearing, width (Ry)=  0.0200

     Number of k-points >= 100: set verbosity='high' to print them.

     Dense  grid:     6879 G-vectors     FFT dimensions: (  27,  27,  27)

     Largest allocated arrays     est. size (Mb)     dimensions
        Kohn-Sham Wavefunctions         0.02 Mb     (      61,   18)
        NL pseudopotentials             0.03 Mb     (      61,   36)
        Each V/rho on FFT grid          0.02 Mb     (    1458)
        Each G-vector array             0.00 Mb     (     431)
        G-vector shells                 0.00 Mb     (     108)
     Largest temporary arrays     est. size (Mb)     dimensions
        Auxiliary wavefunctions         0.07 Mb     (      61,   72)
        Each subspace H/S matrix        0.02 Mb     (      36,   36)
        Each <psi_i|beta_j> matrix      0.01 Mb     (      36,   18)
        Arrays for rho mixing           0.18 Mb     (    1458,    8)

     Check: negative/imaginary core charge=   -0.000501    0.000000

     Initial potential from superposition of free atoms

     starting charge   25.99991, renormalised to   28.00000
     Starting wfc are   18 randomized atomic wfcs

     total cpu time spent up to now is        0.5 secs

     per-process dynamical memory:     9.7 Mb

     Self-consistent Calculation

     iteration #  1     ecut=    22.00 Ry     beta=0.70
     Davidson diagonalization with overlap
     ethr =  1.00E-02,  avg # of iterations =  3.6

     total cpu time spent up to now is        1.9 secs

     total energy              =    -317.17491773 Ry
     Harris-Foulkes estimate   =    -319.30625521 Ry
     estimated scf accuracy    <       2.57070421 Ry

     iteration #  2     ecut=    22.00 Ry     beta=0.70
     Davidson diagonalization with overlap
     ethr =  9.18E-03,  avg # of iterations =  2.2

     total cpu time spent up to now is        3.1 secs

     total energy              =    -318.13365667 Ry
     Harris-Foulkes estimate   =    -318.50867397 Ry
     estimated scf accuracy    <       0.56086779 Ry

     iteration #  3     ecut=    22.00 Ry     beta=0.70
     Davidson diagonalization with overlap
     ethr =  2.00E-03,  avg # of iterations =  2.0

     total cpu time spent up to now is        3.7 secs

     total energy              =    -318.24288859 Ry
     Harris-Foulkes estimate   =    -318.24525684 Ry
     estimated scf accuracy    <       0.00432863 Ry

     iteration #  4     ecut=    22.00 Ry     beta=0.70
     Davidson diagonalization with overlap
     ethr =  1.55E-05,  avg # of iterations =  3.0

     total cpu time spent up to now is        4.7 secs

     total energy              =    -318.24382783 Ry
     Harris-Foulkes estimate   =    -318.24399733 Ry
     estimated scf accuracy    <       0.00027095 Ry

     iteration #  5     ecut=    22.00 Ry     beta=0.70
     Davidson diagonalization with overlap
     ethr =  9.68E-07,  avg # of iterations =  2.0

     total cpu time spent up to now is        5.3 secs

     total energy              =    -318.24388001 Ry
     Harris-Foulkes estimate   =    -318.24388157 Ry
     estimated scf accuracy    <       0.00000236 Ry

     iteration #  6     ecut=    22.00 Ry     beta=0.70
     Davidson diagonalization with overlap
     ethr =  8.42E-09,  avg # of iterations =  3.0

     total cpu time spent up to now is        5.8 secs

     total energy              =    -318.24388085 Ry
     Harris-Foulkes estimate   =    -318.24388090 Ry
     estimated scf accuracy    <       0.00000010 Ry

     iteration #  7     ecut=    22.00 Ry     beta=0.70
     Davidson diagonalization with overlap
     ethr =  3.47E-10,  avg # of iterations =  2.1

     total cpu time spent up to now is        6.1 secs

     End of self-consistent calculation

     Number of k-points >= 100: set verbosity='high' to print the bands.

     the Fermi energy is     6.8985 ev

!    total energy              =    -318.24388086 Ry
     Harris-Foulkes estimate   =    -318.24388087 Ry
     estimated scf accuracy    <          1.0E-08 Ry

     The total energy is the sum of the following terms:

     one-electron contribution =    -161.93964153 Ry
     hartree contribution      =      97.71329128 Ry
     xc contribution           =     -86.13446884 Ry
     ewald contribution        =    -167.88333749 Ry
     smearing contrib. (-TS)   =       0.00027571 Ry

     convergence has been achieved in   7 iterations

     Forces acting on atoms (Ry/au):

     atom    1 type  1   force =     0.00000000    0.00000000    0.00000000
     atom    2 type  1   force =    -0.00000000   -0.00000000    0.00000000

     Total force =     0.000000     Total SCF correction =     0.000000


     entering subroutine stress ...

          total   stress  (Ry/bohr**3)                   (kbar)     P=  -50.54
  -0.00034358   0.00000000   0.00000000        -50.54      0.00      0.00
   0.00000000  -0.00034358   0.00000000          0.00    -50.54      0.00
   0.00000000   0.00000000  -0.00034358          0.00      0.00    -50.54


     Writing output data file sn.alpha.save
 
     init_run     :      0.08s CPU      0.10s WALL (       1 calls)
     electrons    :      5.58s CPU      5.74s WALL (       1 calls)
     forces       :      0.02s CPU      0.02s WALL (       1 calls)
     stress       :      0.03s CPU      0.03s WALL (       1 calls)

     Called by init_run:
     wfcinit      :      0.04s CPU      0.05s WALL (       1 calls)
     potinit      :      0.01s CPU      0.01s WALL (       1 calls)

     Called by electrons:
     c_bands      :      5.12s CPU      5.21s WALL (       7 calls)
     sum_band     :      0.42s CPU      0.42s WALL (       7 calls)
     v_of_rho     :      0.00s CPU      0.01s WALL (       8 calls)
     newd         :      0.01s CPU      0.01s WALL (       8 calls)
     mix_rho      :      0.00s CPU      0.00s WALL (       7 calls)

     Called by c_bands:
     init_us_2    :      0.01s CPU      0.01s WALL (     289 calls)
     cegterg      :      1.28s CPU      1.31s WALL (     119 calls)

     Called by sum_band:
     sum_band:bec :      0.00s CPU      0.00s WALL (     119 calls)
     addusdens    :      0.01s CPU      0.01s WALL (       7 calls)

     Called by *egterg:
     h_psi        :      0.48s CPU      0.53s WALL (     456 calls)
     s_psi        :      0.02s CPU      0.01s WALL (     456 calls)
     g_psi        :      0.00s CPU      0.00s WALL (     320 calls)
     cdiaghg      :      0.67s CPU      0.69s WALL (     439 calls)

     Called by h_psi:
     add_vuspsi   :      0.02s CPU      0.01s WALL (     456 calls)

     General routines
     calbec       :      0.01s CPU      0.04s WALL (     660 calls)
     fft          :      0.01s CPU      0.01s WALL (     128 calls)
     fftw         :      0.48s CPU      0.52s WALL (   15330 calls)
     davcio       :      0.00s CPU      0.06s WALL (      17 calls)
 
     Parallel routines
     fft_scatter  :      0.18s CPU      0.28s WALL (   15458 calls)
 
     PWSCF        :     7.20s CPU        42.67s WALL

 
   This run was terminated on:  16:24:57   9Apr2018            

=------------------------------------------------------------------------------=
   JOB DONE.
=------------------------------------------------------------------------------=
Application 30463072 resources: utime ~16320s, stime ~65s, Rss ~22872, inblocks ~3612250, outblocks ~3008562
