
     Program PWSCF v.5.4.0 starts on  7Apr2018 at  0: 3:59 

     This program is part of the open-source Quantum ESPRESSO suite
     for quantum simulation of materials; please cite
         "P. Giannozzi et al., J. Phys.:Condens. Matter 21 395502 (2009);
          URL http://www.quantum-espresso.org", 
     in publications or presentations arising from this work. More details at
     http://www.quantum-espresso.org/quote

     Parallel version (MPI & OpenMP), running on     192 processor cores
     Number of MPI processes:               192
     Threads/MPI process:                     1
     K-points division:     npool     =      24
     R & G space division:  proc/nbgrp/npool/nimage =       8
     Waiting for input...
     Reading input from standard input
     Message from routine read_cards :
     DEPRECATED: no units specified in ATOMIC_POSITIONS card
     Message from routine read_cards :
     ATOMIC_POSITIONS: units set to alat

     Current dimensions of program PWSCF are:
     Max number of different atomic species (ntypx) = 10
     Max number of k-points (npk) =  40000
     Max angular momentum in pseudopotentials (lmaxx) =  3

     Subspace diagonalization in iterative solution of the eigenvalue problem:
     one sub-group per band group will be used
     scalapack distributed-memory algorithm (size of sub-group:  2*  2 procs)

 
     Parallelization info
     --------------------
     sticks:   dense  smooth     PW     G-vecs:    dense   smooth      PW
     Min         203     203     59                 5341     5341     858
     Max         204     204     60                 5342     5342     861
     Sum        1627    1627    475                42735    42735    6879
 


     bravais-lattice index     =            2
     lattice parameter (alat)  =      12.5779  a.u.
     unit-cell volume          =     497.4707 (a.u.)^3
     number of atoms/cell      =            2
     number of atomic types    =            1
     number of electrons       =        28.00
     number of Kohn-Sham states=           14
     kinetic-energy cutoff     =      74.0000  Ry
     charge density cutoff     =     296.0000  Ry
     convergence threshold     =      1.0E-08
     mixing beta               =       0.7000
     number of iterations used =            8  plain     mixing
     Exchange-correlation      =  SLA  PW   PBX  PBC ( 1  4  3  4 0 0)

     celldm(1)=  12.577930  celldm(2)=   0.000000  celldm(3)=   0.000000
     celldm(4)=   0.000000  celldm(5)=   0.000000  celldm(6)=   0.000000

     crystal axes: (cart. coord. in units of alat)
               a(1) = (  -0.500000   0.000000   0.500000 )  
               a(2) = (   0.000000   0.500000   0.500000 )  
               a(3) = (  -0.500000   0.500000   0.000000 )  

     reciprocal axes: (cart. coord. in units 2 pi/alat)
               b(1) = ( -1.000000 -1.000000  1.000000 )  
               b(2) = (  1.000000  1.000000  1.000000 )  
               b(3) = ( -1.000000  1.000000 -1.000000 )  


     PseudoPot. # 1 for Sn read from file:
     ./sn_pbe_v1.4.uspp.F.UPF
     MD5 check sum: 469debedee59599fedebd795477fea03
     Pseudo is Ultrasoft + core correction, Zval = 14.0
     Generated by new atomic code, or converted to UPF format
     Using radial grid of  891 points,  6 beta functions with: 
                l(1) =   0
                l(2) =   0
                l(3) =   1
                l(4) =   1
                l(5) =   2
                l(6) =   2
     Q(r) pseudized with  8 coefficients,  rinner =    1.350   1.350   1.350
                                                       1.350   1.350

     atomic species   valence    mass     pseudopotential
        Sn            14.00   118.71000     Sn( 1.00)

     24 Sym. Ops. (no inversion) found
          (note: 24 additional sym.ops. were found but ignored
           their fractional translations are incommensurate with FFT grid)


   Cartesian axes

     site n.     atom                  positions (alat units)
         1           Sn  tau(   1) = (   0.0000000   0.0000000   0.0000000  )
         2           Sn  tau(   2) = (   0.2500000   0.2500000   0.2500000  )

     number of k points=   408

     Number of k-points >= 100: set verbosity='high' to print them.

     Dense  grid:    42735 G-vectors     FFT dimensions: (  50,  50,  50)

     Largest allocated arrays     est. size (Mb)     dimensions
        Kohn-Sham Wavefunctions         0.15 Mb     (     688,   14)
        NL pseudopotentials             0.38 Mb     (     688,   36)
        Each V/rho on FFT grid          0.27 Mb     (   17500)
        Each G-vector array             0.04 Mb     (    5342)
        G-vector shells                 0.00 Mb     (     396)
     Largest temporary arrays     est. size (Mb)     dimensions
        Auxiliary wavefunctions         0.59 Mb     (     688,   56)
        Each subspace H/S matrix        0.01 Mb     (      28,   28)
        Each <psi_i|beta_j> matrix      0.01 Mb     (      36,   14)
        Arrays for rho mixing           2.14 Mb     (   17500,    8)

     Check: negative/imaginary core charge=   -0.000001    0.000000

     Initial potential from superposition of free atoms

     starting charge   25.99991, renormalised to   28.00000
     Starting wfc are   18 randomized atomic wfcs

     total cpu time spent up to now is        0.5 secs

     per-process dynamical memory:    16.4 Mb

     Self-consistent Calculation

     iteration #  1     ecut=    74.00 Ry     beta=0.70
     Davidson diagonalization with overlap
     ethr =  1.00E-02,  avg # of iterations =  2.7

     total cpu time spent up to now is        1.2 secs

     total energy              =    -317.49548224 Ry
     Harris-Foulkes estimate   =    -319.55964534 Ry
     estimated scf accuracy    <       2.51457600 Ry

     iteration #  2     ecut=    74.00 Ry     beta=0.70
     Davidson diagonalization with overlap
     ethr =  8.98E-03,  avg # of iterations =  3.0

     total cpu time spent up to now is        2.0 secs

     total energy              =    -318.40411971 Ry
     Harris-Foulkes estimate   =    -318.72201176 Ry
     estimated scf accuracy    <       0.47315994 Ry

     iteration #  3     ecut=    74.00 Ry     beta=0.70
     Davidson diagonalization with overlap
     ethr =  1.69E-03,  avg # of iterations =  2.0

     total cpu time spent up to now is        2.6 secs

     total energy              =    -318.49910209 Ry
     Harris-Foulkes estimate   =    -318.50066330 Ry
     estimated scf accuracy    <       0.00286738 Ry

     iteration #  4     ecut=    74.00 Ry     beta=0.70
     Davidson diagonalization with overlap
     ethr =  1.02E-05,  avg # of iterations =  2.9

     total cpu time spent up to now is        3.3 secs

     total energy              =    -318.49998588 Ry
     Harris-Foulkes estimate   =    -318.50010261 Ry
     estimated scf accuracy    <       0.00017308 Ry

     iteration #  5     ecut=    74.00 Ry     beta=0.70
     Davidson diagonalization with overlap
     ethr =  6.18E-07,  avg # of iterations =  3.0

     total cpu time spent up to now is        4.0 secs

     total energy              =    -318.50003918 Ry
     Harris-Foulkes estimate   =    -318.50003996 Ry
     estimated scf accuracy    <       0.00000156 Ry

     iteration #  6     ecut=    74.00 Ry     beta=0.70
     Davidson diagonalization with overlap
     ethr =  5.57E-09,  avg # of iterations =  3.9

     total cpu time spent up to now is        4.9 secs

     total energy              =    -318.50003998 Ry
     Harris-Foulkes estimate   =    -318.50004002 Ry
     estimated scf accuracy    <       0.00000007 Ry

     iteration #  7     ecut=    74.00 Ry     beta=0.70
     Davidson diagonalization with overlap
     ethr =  2.46E-10,  avg # of iterations =  3.1

     total cpu time spent up to now is        5.7 secs

     End of self-consistent calculation

     Number of k-points >= 100: set verbosity='high' to print the bands.

     highest occupied level (ev):     6.9859

!    total energy              =    -318.50004001 Ry
     Harris-Foulkes estimate   =    -318.50004001 Ry
     estimated scf accuracy    <          2.7E-09 Ry

     The total energy is the sum of the following terms:

     one-electron contribution =    -162.28764525 Ry
     hartree contribution      =      97.63087034 Ry
     xc contribution           =     -85.95992764 Ry
     ewald contribution        =    -167.88333747 Ry

     convergence has been achieved in   7 iterations

     Forces acting on atoms (Ry/au):

     atom    1 type  1   force =     0.00000000    0.00000000    0.00000000
     atom    2 type  1   force =     0.00000000    0.00000000    0.00000000

     Total force =     0.000000     Total SCF correction =     0.000000


     entering subroutine stress ...

          total   stress  (Ry/bohr**3)                   (kbar)     P=   -5.49
  -0.00003735   0.00000000   0.00000000         -5.49      0.00      0.00
   0.00000000  -0.00003735  -0.00000000          0.00     -5.49     -0.00
   0.00000000  -0.00000000  -0.00003735          0.00     -0.00     -5.49


     Writing output data file sn.alpha.save
 
     init_run     :      0.33s CPU      0.36s WALL (       1 calls)
     electrons    :      5.08s CPU      5.26s WALL (       1 calls)
     forces       :      0.07s CPU      0.07s WALL (       1 calls)
     stress       :      0.22s CPU      0.22s WALL (       1 calls)

     Called by init_run:
     wfcinit      :      0.17s CPU      0.18s WALL (       1 calls)
     potinit      :      0.02s CPU      0.02s WALL (       1 calls)

     Called by electrons:
     c_bands      :      4.20s CPU      4.29s WALL (       7 calls)
     sum_band     :      0.67s CPU      0.68s WALL (       7 calls)
     v_of_rho     :      0.08s CPU      0.08s WALL (       8 calls)
     newd         :      0.14s CPU      0.14s WALL (       8 calls)
     mix_rho      :      0.00s CPU      0.01s WALL (       7 calls)

     Called by c_bands:
     init_us_2    :      0.08s CPU      0.06s WALL (     289 calls)
     cegterg      :      3.69s CPU      3.75s WALL (     119 calls)

     Called by sum_band:
     sum_band:bec :      0.00s CPU      0.00s WALL (     119 calls)
     addusdens    :      0.20s CPU      0.21s WALL (       7 calls)

     Called by *egterg:
     h_psi        :      2.60s CPU      2.63s WALL (     522 calls)
     s_psi        :      0.07s CPU      0.08s WALL (     522 calls)
     g_psi        :      0.01s CPU      0.02s WALL (     386 calls)
     cdiaghg      :      0.68s CPU      0.67s WALL (     505 calls)

     Called by h_psi:
     add_vuspsi   :      0.05s CPU      0.10s WALL (     522 calls)

     General routines
     calbec       :      0.14s CPU      0.17s WALL (     726 calls)
     fft          :      0.02s CPU      0.05s WALL (     128 calls)
     fftw         :      2.44s CPU      2.44s WALL (   13088 calls)
     davcio       :      0.00s CPU      0.01s WALL (      17 calls)
 
     Parallel routines
     fft_scatter  :      0.51s CPU      0.53s WALL (   13216 calls)
 
     PWSCF        :     6.72s CPU        20.89s WALL

 
   This run was terminated on:   0: 4:20   7Apr2018            

=------------------------------------------------------------------------------=
   JOB DONE.
=------------------------------------------------------------------------------=
Application 30443850 resources: utime ~3960s, stime ~40s, Rss ~46156, inblocks ~1802655, outblocks ~2373844
