
     Program PWSCF v.5.4.0 starts on  6Apr2018 at 23:57:41 

     This program is part of the open-source Quantum ESPRESSO suite
     for quantum simulation of materials; please cite
         "P. Giannozzi et al., J. Phys.:Condens. Matter 21 395502 (2009);
          URL http://www.quantum-espresso.org", 
     in publications or presentations arising from this work. More details at
     http://www.quantum-espresso.org/quote

     Parallel version (MPI & OpenMP), running on     192 processor cores
     Number of MPI processes:               192
     Threads/MPI process:                     1
     K-points division:     npool     =      24
     R & G space division:  proc/nbgrp/npool/nimage =       8
     Waiting for input...
     Reading input from standard input
     Message from routine read_cards :
     DEPRECATED: no units specified in ATOMIC_POSITIONS card
     Message from routine read_cards :
     ATOMIC_POSITIONS: units set to alat

     Current dimensions of program PWSCF are:
     Max number of different atomic species (ntypx) = 10
     Max number of k-points (npk) =  40000
     Max angular momentum in pseudopotentials (lmaxx) =  3

     Subspace diagonalization in iterative solution of the eigenvalue problem:
     one sub-group per band group will be used
     scalapack distributed-memory algorithm (size of sub-group:  2*  2 procs)

 
     Parallelization info
     --------------------
     sticks:   dense  smooth     PW     G-vecs:    dense   smooth      PW
     Min          48      48     17                  632      632     132
     Max          49      49     18                  635      635     134
     Sum         385     385    139                 5065     5065    1067
 


     bravais-lattice index     =            2
     lattice parameter (alat)  =      12.5779  a.u.
     unit-cell volume          =     497.4707 (a.u.)^3
     number of atoms/cell      =            2
     number of atomic types    =            1
     number of electrons       =        28.00
     number of Kohn-Sham states=           14
     kinetic-energy cutoff     =      18.0000  Ry
     charge density cutoff     =      72.0000  Ry
     convergence threshold     =      1.0E-08
     mixing beta               =       0.7000
     number of iterations used =            8  plain     mixing
     Exchange-correlation      =  SLA  PW   PBX  PBC ( 1  4  3  4 0 0)

     celldm(1)=  12.577930  celldm(2)=   0.000000  celldm(3)=   0.000000
     celldm(4)=   0.000000  celldm(5)=   0.000000  celldm(6)=   0.000000

     crystal axes: (cart. coord. in units of alat)
               a(1) = (  -0.500000   0.000000   0.500000 )  
               a(2) = (   0.000000   0.500000   0.500000 )  
               a(3) = (  -0.500000   0.500000   0.000000 )  

     reciprocal axes: (cart. coord. in units 2 pi/alat)
               b(1) = ( -1.000000 -1.000000  1.000000 )  
               b(2) = (  1.000000  1.000000  1.000000 )  
               b(3) = ( -1.000000  1.000000 -1.000000 )  


     PseudoPot. # 1 for Sn read from file:
     ./sn_pbe_v1.4.uspp.F.UPF
     MD5 check sum: 469debedee59599fedebd795477fea03
     Pseudo is Ultrasoft + core correction, Zval = 14.0
     Generated by new atomic code, or converted to UPF format
     Using radial grid of  891 points,  6 beta functions with: 
                l(1) =   0
                l(2) =   0
                l(3) =   1
                l(4) =   1
                l(5) =   2
                l(6) =   2
     Q(r) pseudized with  8 coefficients,  rinner =    1.350   1.350   1.350
                                                       1.350   1.350

     atomic species   valence    mass     pseudopotential
        Sn            14.00   118.71000     Sn( 1.00)

     24 Sym. Ops. (no inversion) found
          (note: 24 additional sym.ops. were found but ignored
           their fractional translations are incommensurate with FFT grid)


   Cartesian axes

     site n.     atom                  positions (alat units)
         1           Sn  tau(   1) = (   0.0000000   0.0000000   0.0000000  )
         2           Sn  tau(   2) = (   0.2500000   0.2500000   0.2500000  )

     number of k points=   408

     Number of k-points >= 100: set verbosity='high' to print them.

     Dense  grid:     5065 G-vectors     FFT dimensions: (  25,  25,  25)

     Largest allocated arrays     est. size (Mb)     dimensions
        Kohn-Sham Wavefunctions         0.02 Mb     (      90,   14)
        NL pseudopotentials             0.05 Mb     (      90,   36)
        Each V/rho on FFT grid          0.04 Mb     (    2500)
        Each G-vector array             0.00 Mb     (     634)
        G-vector shells                 0.00 Mb     (      97)
     Largest temporary arrays     est. size (Mb)     dimensions
        Auxiliary wavefunctions         0.08 Mb     (      90,   56)
        Each subspace H/S matrix        0.01 Mb     (      28,   28)
        Each <psi_i|beta_j> matrix      0.01 Mb     (      36,   14)
        Arrays for rho mixing           0.31 Mb     (    2500,    8)

     Check: negative/imaginary core charge=   -0.001171    0.000000

     Initial potential from superposition of free atoms

     starting charge   25.99991, renormalised to   28.00000
     Starting wfc are   18 randomized atomic wfcs

     total cpu time spent up to now is        0.2 secs

     per-process dynamical memory:     9.4 Mb

     Self-consistent Calculation

     iteration #  1     ecut=    18.00 Ry     beta=0.70
     Davidson diagonalization with overlap
     ethr =  1.00E-02,  avg # of iterations =  2.0

     total cpu time spent up to now is        0.4 secs

     total energy              =    -317.20184030 Ry
     Harris-Foulkes estimate   =    -319.36854050 Ry
     estimated scf accuracy    <       2.57767741 Ry

     iteration #  2     ecut=    18.00 Ry     beta=0.70
     Davidson diagonalization with overlap
     ethr =  9.21E-03,  avg # of iterations =  2.3

     total cpu time spent up to now is        0.6 secs

     total energy              =    -318.17209685 Ry
     Harris-Foulkes estimate   =    -318.54978629 Ry
     estimated scf accuracy    <       0.55854074 Ry

     iteration #  3     ecut=    18.00 Ry     beta=0.70
     Davidson diagonalization with overlap
     ethr =  1.99E-03,  avg # of iterations =  2.0

     total cpu time spent up to now is        0.8 secs

     total energy              =    -318.28295057 Ry
     Harris-Foulkes estimate   =    -318.28564640 Ry
     estimated scf accuracy    <       0.00464730 Ry

     iteration #  4     ecut=    18.00 Ry     beta=0.70
     Davidson diagonalization with overlap
     ethr =  1.66E-05,  avg # of iterations =  3.2

     total cpu time spent up to now is        1.1 secs

     total energy              =    -318.28447160 Ry
     Harris-Foulkes estimate   =    -318.28468620 Ry
     estimated scf accuracy    <       0.00034662 Ry

     iteration #  5     ecut=    18.00 Ry     beta=0.70
     Davidson diagonalization with overlap
     ethr =  1.24E-06,  avg # of iterations =  2.1

     total cpu time spent up to now is        1.3 secs

     total energy              =    -318.28453933 Ry
     Harris-Foulkes estimate   =    -318.28454352 Ry
     estimated scf accuracy    <       0.00000614 Ry

     iteration #  6     ecut=    18.00 Ry     beta=0.70
     Davidson diagonalization with overlap
     ethr =  2.19E-08,  avg # of iterations =  3.2

     total cpu time spent up to now is        1.5 secs

     total energy              =    -318.28454259 Ry
     Harris-Foulkes estimate   =    -318.28454306 Ry
     estimated scf accuracy    <       0.00000091 Ry

     iteration #  7     ecut=    18.00 Ry     beta=0.70
     Davidson diagonalization with overlap
     ethr =  3.25E-09,  avg # of iterations =  2.0

     total cpu time spent up to now is        1.7 secs

     total energy              =    -318.28454262 Ry
     Harris-Foulkes estimate   =    -318.28454269 Ry
     estimated scf accuracy    <       0.00000010 Ry

     iteration #  8     ecut=    18.00 Ry     beta=0.70
     Davidson diagonalization with overlap
     ethr =  3.49E-10,  avg # of iterations =  3.1

     total cpu time spent up to now is        1.9 secs

     End of self-consistent calculation

     Number of k-points >= 100: set verbosity='high' to print the bands.

     highest occupied level (ev):     7.0125

!    total energy              =    -318.28454265 Ry
     Harris-Foulkes estimate   =    -318.28454266 Ry
     estimated scf accuracy    <          3.3E-09 Ry

     The total energy is the sum of the following terms:

     one-electron contribution =    -161.66948239 Ry
     hartree contribution      =      97.61949303 Ry
     xc contribution           =     -86.35121581 Ry
     ewald contribution        =    -167.88333748 Ry

     convergence has been achieved in   8 iterations

     Forces acting on atoms (Ry/au):

     atom    1 type  1   force =     0.00000000    0.00000000    0.00000000
     atom    2 type  1   force =     0.00000000    0.00000000    0.00000000

     Total force =     0.000000     Total SCF correction =     0.000000


     entering subroutine stress ...

          total   stress  (Ry/bohr**3)                   (kbar)     P=  152.71
   0.00103809   0.00000000   0.00000000        152.71      0.00      0.00
   0.00000000   0.00103809   0.00000000          0.00    152.71      0.00
   0.00000000  -0.00000000   0.00103809          0.00     -0.00    152.71


     Writing output data file sn.alpha.save
 
     init_run     :      0.10s CPU      0.11s WALL (       1 calls)
     electrons    :      1.63s CPU      1.73s WALL (       1 calls)
     forces       :      0.01s CPU      0.01s WALL (       1 calls)
     stress       :      0.03s CPU      0.03s WALL (       1 calls)

     Called by init_run:
     wfcinit      :      0.05s CPU      0.05s WALL (       1 calls)
     potinit      :      0.00s CPU      0.00s WALL (       1 calls)

     Called by electrons:
     c_bands      :      1.47s CPU      1.55s WALL (       8 calls)
     sum_band     :      0.12s CPU      0.13s WALL (       8 calls)
     v_of_rho     :      0.02s CPU      0.01s WALL (       9 calls)
     newd         :      0.01s CPU      0.02s WALL (       9 calls)
     mix_rho      :      0.00s CPU      0.00s WALL (       8 calls)

     Called by c_bands:
     init_us_2    :      0.00s CPU      0.01s WALL (     323 calls)
     cegterg      :      1.33s CPU      1.38s WALL (     136 calls)

     Called by sum_band:
     sum_band:bec :      0.00s CPU      0.00s WALL (     136 calls)
     addusdens    :      0.02s CPU      0.02s WALL (       8 calls)

     Called by *egterg:
     h_psi        :      0.62s CPU      0.58s WALL (     562 calls)
     s_psi        :      0.02s CPU      0.02s WALL (     562 calls)
     g_psi        :      0.00s CPU      0.00s WALL (     409 calls)
     cdiaghg      :      0.62s CPU      0.70s WALL (     545 calls)

     Called by h_psi:
     add_vuspsi   :      0.02s CPU      0.02s WALL (     562 calls)

     General routines
     calbec       :      0.03s CPU      0.04s WALL (     783 calls)
     fft          :      0.01s CPU      0.01s WALL (     141 calls)
     fftw         :      0.56s CPU      0.55s WALL (   14424 calls)
     davcio       :      0.00s CPU      0.01s WALL (      17 calls)
 
     Parallel routines
     fft_scatter  :      0.22s CPU      0.22s WALL (   14565 calls)
 
     PWSCF        :     2.30s CPU        20.67s WALL

 
   This run was terminated on:  23:58: 1   6Apr2018            

=------------------------------------------------------------------------------=
   JOB DONE.
=------------------------------------------------------------------------------=
Application 30443816 resources: utime ~3947s, stime ~32s, Rss ~23460, inblocks ~1802086, outblocks ~1519752
