
     Program PWSCF v.5.4.0 starts on  9Apr2018 at 16:41:13 

     This program is part of the open-source Quantum ESPRESSO suite
     for quantum simulation of materials; please cite
         "P. Giannozzi et al., J. Phys.:Condens. Matter 21 395502 (2009);
          URL http://www.quantum-espresso.org", 
     in publications or presentations arising from this work. More details at
     http://www.quantum-espresso.org/quote

     Parallel version (MPI & OpenMP), running on     384 processor cores
     Number of MPI processes:               384
     Threads/MPI process:                     1
     K-points division:     npool     =      24
     R & G space division:  proc/nbgrp/npool/nimage =      16
     Waiting for input...
     Reading input from standard input
     Message from routine read_cards :
     DEPRECATED: no units specified in ATOMIC_POSITIONS card
     Message from routine read_cards :
     ATOMIC_POSITIONS: units set to alat

     Current dimensions of program PWSCF are:
     Max number of different atomic species (ntypx) = 10
     Max number of k-points (npk) =  40000
     Max angular momentum in pseudopotentials (lmaxx) =  3

     Subspace diagonalization in iterative solution of the eigenvalue problem:
     one sub-group per band group will be used
     scalapack distributed-memory algorithm (size of sub-group:  2*  2 procs)

 
     Parallelization info
     --------------------
     sticks:   dense  smooth     PW     G-vecs:    dense   smooth      PW
     Min         132     132     38                 4054     4054     635
     Max         135     135     40                 4055     4055     637
     Sum        2125    2125    625                64875    64875   10177
 


     bravais-lattice index     =            2
     lattice parameter (alat)  =      12.5779  a.u.
     unit-cell volume          =     497.4707 (a.u.)^3
     number of atoms/cell      =            2
     number of atomic types    =            1
     number of electrons       =        28.00
     number of Kohn-Sham states=           18
     kinetic-energy cutoff     =      98.0000  Ry
     charge density cutoff     =     392.0000  Ry
     convergence threshold     =      1.0E-08
     mixing beta               =       0.7000
     number of iterations used =            8  plain     mixing
     Exchange-correlation      =  SLA  PW   PBX  PBC ( 1  4  3  4 0 0)

     celldm(1)=  12.577930  celldm(2)=   0.000000  celldm(3)=   0.000000
     celldm(4)=   0.000000  celldm(5)=   0.000000  celldm(6)=   0.000000

     crystal axes: (cart. coord. in units of alat)
               a(1) = (  -0.500000   0.000000   0.500000 )  
               a(2) = (   0.000000   0.500000   0.500000 )  
               a(3) = (  -0.500000   0.500000   0.000000 )  

     reciprocal axes: (cart. coord. in units 2 pi/alat)
               b(1) = ( -1.000000 -1.000000  1.000000 )  
               b(2) = (  1.000000  1.000000  1.000000 )  
               b(3) = ( -1.000000  1.000000 -1.000000 )  


     PseudoPot. # 1 for Sn read from file:
     ./sn_pbe_v1.4.uspp.F.UPF
     MD5 check sum: 469debedee59599fedebd795477fea03
     Pseudo is Ultrasoft + core correction, Zval = 14.0
     Generated by new atomic code, or converted to UPF format
     Using radial grid of  891 points,  6 beta functions with: 
                l(1) =   0
                l(2) =   0
                l(3) =   1
                l(4) =   1
                l(5) =   2
                l(6) =   2
     Q(r) pseudized with  8 coefficients,  rinner =    1.350   1.350   1.350
                                                       1.350   1.350

     atomic species   valence    mass     pseudopotential
        Sn            14.00   118.71000     Sn( 1.00)

     48 Sym. Ops., with inversion, found (24 have fractional translation)



   Cartesian axes

     site n.     atom                  positions (alat units)
         1           Sn  tau(   1) = (   0.0000000   0.0000000   0.0000000  )
         2           Sn  tau(   2) = (   0.2500000   0.2500000   0.2500000  )

     number of k points=   408  Marzari-Vanderbilt smearing, width (Ry)=  0.0200

     Number of k-points >= 100: set verbosity='high' to print them.

     Dense  grid:    64875 G-vectors     FFT dimensions: (  60,  60,  60)

     Largest allocated arrays     est. size (Mb)     dimensions
        Kohn-Sham Wavefunctions         0.15 Mb     (     531,   18)
        NL pseudopotentials             0.29 Mb     (     531,   36)
        Each V/rho on FFT grid          0.22 Mb     (   14400)
        Each G-vector array             0.03 Mb     (    4054)
        G-vector shells                 0.00 Mb     (     512)
     Largest temporary arrays     est. size (Mb)     dimensions
        Auxiliary wavefunctions         0.58 Mb     (     531,   72)
        Each subspace H/S matrix        0.02 Mb     (      36,   36)
        Each <psi_i|beta_j> matrix      0.01 Mb     (      36,   18)
        Arrays for rho mixing           1.76 Mb     (   14400,    8)

     Check: negative/imaginary core charge=   -0.000001    0.000000

     Initial potential from superposition of free atoms

     starting charge   25.99991, renormalised to   28.00000
     Starting wfc are   18 randomized atomic wfcs

     total cpu time spent up to now is        0.8 secs

     per-process dynamical memory:    16.2 Mb

     Self-consistent Calculation

     iteration #  1     ecut=    98.00 Ry     beta=0.70
     Davidson diagonalization with overlap
     ethr =  1.00E-02,  avg # of iterations =  3.6

     total cpu time spent up to now is        2.5 secs

     total energy              =    -317.47859378 Ry
     Harris-Foulkes estimate   =    -319.56523782 Ry
     estimated scf accuracy    <       2.54299392 Ry

     iteration #  2     ecut=    98.00 Ry     beta=0.70
     Davidson diagonalization with overlap
     ethr =  9.08E-03,  avg # of iterations =  3.0

     total cpu time spent up to now is        3.7 secs

     total energy              =    -318.40370710 Ry
     Harris-Foulkes estimate   =    -318.73454598 Ry
     estimated scf accuracy    <       0.49386082 Ry

     iteration #  3     ecut=    98.00 Ry     beta=0.70
     Davidson diagonalization with overlap
     ethr =  1.76E-03,  avg # of iterations =  2.0

     total cpu time spent up to now is        4.7 secs

     total energy              =    -318.50171604 Ry
     Harris-Foulkes estimate   =    -318.50316375 Ry
     estimated scf accuracy    <       0.00299931 Ry

     iteration #  4     ecut=    98.00 Ry     beta=0.70
     Davidson diagonalization with overlap
     ethr =  1.07E-05,  avg # of iterations =  3.2

     total cpu time spent up to now is        6.2 secs

     total energy              =    -318.50237253 Ry
     Harris-Foulkes estimate   =    -318.50247856 Ry
     estimated scf accuracy    <       0.00016181 Ry

     iteration #  5     ecut=    98.00 Ry     beta=0.70
     Davidson diagonalization with overlap
     ethr =  5.78E-07,  avg # of iterations =  2.0

     total cpu time spent up to now is        7.8 secs

     total energy              =    -318.50241537 Ry
     Harris-Foulkes estimate   =    -318.50241611 Ry
     estimated scf accuracy    <       0.00000157 Ry

     iteration #  6     ecut=    98.00 Ry     beta=0.70
     Davidson diagonalization with overlap
     ethr =  5.62E-09,  avg # of iterations =  3.0

     total cpu time spent up to now is        9.2 secs

     End of self-consistent calculation

     Number of k-points >= 100: set verbosity='high' to print the bands.

     the Fermi energy is     6.8979 ev

!    total energy              =    -318.50241589 Ry
     Harris-Foulkes estimate   =    -318.50241588 Ry
     estimated scf accuracy    <          8.7E-09 Ry

     The total energy is the sum of the following terms:

     one-electron contribution =    -162.28731602 Ry
     hartree contribution      =      97.62749589 Ry
     xc contribution           =     -85.95954069 Ry
     ewald contribution        =    -167.88333747 Ry
     smearing contrib. (-TS)   =       0.00028240 Ry

     convergence has been achieved in   6 iterations

     Forces acting on atoms (Ry/au):

     atom    1 type  1   force =     0.00000000   -0.00000000    0.00000000
     atom    2 type  1   force =     0.00000000   -0.00000000    0.00000000

     Total force =     0.000000     Total SCF correction =     0.000000


     entering subroutine stress ...

          total   stress  (Ry/bohr**3)                   (kbar)     P=   -1.46
  -0.00000992  -0.00000000  -0.00000000         -1.46     -0.00     -0.00
  -0.00000000  -0.00000992   0.00000000         -0.00     -1.46      0.00
  -0.00000000   0.00000000  -0.00000992         -0.00      0.00     -1.46


     Writing output data file sn.alpha.save
 
     init_run     :      0.30s CPU      0.31s WALL (       1 calls)
     electrons    :      8.34s CPU      8.53s WALL (       1 calls)
     forces       :      0.08s CPU      0.08s WALL (       1 calls)
     stress       :      0.20s CPU      0.20s WALL (       1 calls)

     Called by init_run:
     wfcinit      :      0.16s CPU      0.16s WALL (       1 calls)
     potinit      :      0.02s CPU      0.02s WALL (       1 calls)

     Called by electrons:
     c_bands      :      7.17s CPU      7.28s WALL (       6 calls)
     sum_band     :      1.00s CPU      1.01s WALL (       6 calls)
     v_of_rho     :      0.05s CPU      0.06s WALL (       7 calls)
     newd         :      0.08s CPU      0.10s WALL (       7 calls)
     mix_rho      :      0.00s CPU      0.01s WALL (       6 calls)

     Called by c_bands:
     init_us_2    :      0.03s CPU      0.04s WALL (     255 calls)
     cegterg      :      3.23s CPU      3.28s WALL (     102 calls)

     Called by sum_band:
     sum_band:bec :      0.00s CPU      0.00s WALL (     102 calls)
     addusdens    :      0.14s CPU      0.13s WALL (       6 calls)

     Called by *egterg:
     h_psi        :      2.15s CPU      2.22s WALL (     416 calls)
     s_psi        :      0.08s CPU      0.06s WALL (     416 calls)
     g_psi        :      0.01s CPU      0.01s WALL (     297 calls)
     cdiaghg      :      0.70s CPU      0.69s WALL (     399 calls)

     Called by h_psi:
     add_vuspsi   :      0.07s CPU      0.07s WALL (     416 calls)

     General routines
     calbec       :      0.14s CPU      0.14s WALL (     603 calls)
     fft          :      0.03s CPU      0.04s WALL (     115 calls)
     fftw         :      2.06s CPU      2.12s WALL (   13378 calls)
     davcio       :      0.00s CPU      0.30s WALL (      17 calls)
 
     Parallel routines
     fft_scatter  :      0.70s CPU      0.66s WALL (   13493 calls)
 
     PWSCF        :    10.41s CPU        26.85s WALL

 
   This run was terminated on:  16:41:40   9Apr2018            

=------------------------------------------------------------------------------=
   JOB DONE.
=------------------------------------------------------------------------------=
Application 30463801 resources: utime ~10262s, stime ~79s, Rss ~44092, inblocks ~3647551, outblocks ~4722837
