
     Program PWSCF v.5.4.0 starts on  9Apr2018 at 16:26:37 

     This program is part of the open-source Quantum ESPRESSO suite
     for quantum simulation of materials; please cite
         "P. Giannozzi et al., J. Phys.:Condens. Matter 21 395502 (2009);
          URL http://www.quantum-espresso.org", 
     in publications or presentations arising from this work. More details at
     http://www.quantum-espresso.org/quote

     Parallel version (MPI & OpenMP), running on     384 processor cores
     Number of MPI processes:               384
     Threads/MPI process:                     1
     K-points division:     npool     =      24
     R & G space division:  proc/nbgrp/npool/nimage =      16
     Waiting for input...
     Reading input from standard input
     Message from routine read_cards :
     DEPRECATED: no units specified in ATOMIC_POSITIONS card
     Message from routine read_cards :
     ATOMIC_POSITIONS: units set to alat

     Current dimensions of program PWSCF are:
     Max number of different atomic species (ntypx) = 10
     Max number of k-points (npk) =  40000
     Max angular momentum in pseudopotentials (lmaxx) =  3

     Subspace diagonalization in iterative solution of the eigenvalue problem:
     one sub-group per band group will be used
     scalapack distributed-memory algorithm (size of sub-group:  2*  2 procs)

 
     Parallelization info
     --------------------
     sticks:   dense  smooth     PW     G-vecs:    dense   smooth      PW
     Min          46      46     15                  834      834     151
     Max          47      47     16                  837      837     153
     Sum         745     745    241                13371    13371    2421
 


     bravais-lattice index     =            2
     lattice parameter (alat)  =      12.5779  a.u.
     unit-cell volume          =     497.4707 (a.u.)^3
     number of atoms/cell      =            2
     number of atomic types    =            1
     number of electrons       =        28.00
     number of Kohn-Sham states=           18
     kinetic-energy cutoff     =      34.0000  Ry
     charge density cutoff     =     136.0000  Ry
     convergence threshold     =      1.0E-08
     mixing beta               =       0.7000
     number of iterations used =            8  plain     mixing
     Exchange-correlation      =  SLA  PW   PBX  PBC ( 1  4  3  4 0 0)

     celldm(1)=  12.577930  celldm(2)=   0.000000  celldm(3)=   0.000000
     celldm(4)=   0.000000  celldm(5)=   0.000000  celldm(6)=   0.000000

     crystal axes: (cart. coord. in units of alat)
               a(1) = (  -0.500000   0.000000   0.500000 )  
               a(2) = (   0.000000   0.500000   0.500000 )  
               a(3) = (  -0.500000   0.500000   0.000000 )  

     reciprocal axes: (cart. coord. in units 2 pi/alat)
               b(1) = ( -1.000000 -1.000000  1.000000 )  
               b(2) = (  1.000000  1.000000  1.000000 )  
               b(3) = ( -1.000000  1.000000 -1.000000 )  


     PseudoPot. # 1 for Sn read from file:
     ./sn_pbe_v1.4.uspp.F.UPF
     MD5 check sum: 469debedee59599fedebd795477fea03
     Pseudo is Ultrasoft + core correction, Zval = 14.0
     Generated by new atomic code, or converted to UPF format
     Using radial grid of  891 points,  6 beta functions with: 
                l(1) =   0
                l(2) =   0
                l(3) =   1
                l(4) =   1
                l(5) =   2
                l(6) =   2
     Q(r) pseudized with  8 coefficients,  rinner =    1.350   1.350   1.350
                                                       1.350   1.350

     atomic species   valence    mass     pseudopotential
        Sn            14.00   118.71000     Sn( 1.00)

     48 Sym. Ops., with inversion, found (24 have fractional translation)



   Cartesian axes

     site n.     atom                  positions (alat units)
         1           Sn  tau(   1) = (   0.0000000   0.0000000   0.0000000  )
         2           Sn  tau(   2) = (   0.2500000   0.2500000   0.2500000  )

     number of k points=   408  Marzari-Vanderbilt smearing, width (Ry)=  0.0200

     Number of k-points >= 100: set verbosity='high' to print them.

     Dense  grid:    13371 G-vectors     FFT dimensions: (  36,  36,  36)

     Largest allocated arrays     est. size (Mb)     dimensions
        Kohn-Sham Wavefunctions         0.03 Mb     (     110,   18)
        NL pseudopotentials             0.06 Mb     (     110,   36)
        Each V/rho on FFT grid          0.06 Mb     (    3888)
        Each G-vector array             0.01 Mb     (     836)
        G-vector shells                 0.00 Mb     (     173)
     Largest temporary arrays     est. size (Mb)     dimensions
        Auxiliary wavefunctions         0.12 Mb     (     110,   72)
        Each subspace H/S matrix        0.02 Mb     (      36,   36)
        Each <psi_i|beta_j> matrix      0.01 Mb     (      36,   18)
        Arrays for rho mixing           0.47 Mb     (    3888,    8)

     Check: negative/imaginary core charge=   -0.000004    0.000000

     Initial potential from superposition of free atoms

     starting charge   25.99991, renormalised to   28.00000
     Starting wfc are   18 randomized atomic wfcs

     total cpu time spent up to now is        0.3 secs

     per-process dynamical memory:    10.4 Mb

     Self-consistent Calculation

     iteration #  1     ecut=    34.00 Ry     beta=0.70
     Davidson diagonalization with overlap
     ethr =  1.00E-02,  avg # of iterations =  3.6

     total cpu time spent up to now is        1.2 secs

     total energy              =    -317.44505300 Ry
     Harris-Foulkes estimate   =    -319.53238695 Ry
     estimated scf accuracy    <       2.54443787 Ry

     iteration #  2     ecut=    34.00 Ry     beta=0.70
     Davidson diagonalization with overlap
     ethr =  9.09E-03,  avg # of iterations =  3.0

     total cpu time spent up to now is        1.9 secs

     total energy              =    -318.37094112 Ry
     Harris-Foulkes estimate   =    -318.70330984 Ry
     estimated scf accuracy    <       0.49644246 Ry

     iteration #  3     ecut=    34.00 Ry     beta=0.70
     Davidson diagonalization with overlap
     ethr =  1.77E-03,  avg # of iterations =  2.0

     total cpu time spent up to now is        2.3 secs

     total energy              =    -318.46926500 Ry
     Harris-Foulkes estimate   =    -318.47074513 Ry
     estimated scf accuracy    <       0.00303894 Ry

     iteration #  4     ecut=    34.00 Ry     beta=0.70
     Davidson diagonalization with overlap
     ethr =  1.09E-05,  avg # of iterations =  3.2

     total cpu time spent up to now is        2.9 secs

     total energy              =    -318.46991472 Ry
     Harris-Foulkes estimate   =    -318.47002431 Ry
     estimated scf accuracy    <       0.00016350 Ry

     iteration #  5     ecut=    34.00 Ry     beta=0.70
     Davidson diagonalization with overlap
     ethr =  5.84E-07,  avg # of iterations =  2.0

     total cpu time spent up to now is        3.3 secs

     total energy              =    -318.46995900 Ry
     Harris-Foulkes estimate   =    -318.46996006 Ry
     estimated scf accuracy    <       0.00000198 Ry

     iteration #  6     ecut=    34.00 Ry     beta=0.70
     Davidson diagonalization with overlap
     ethr =  7.09E-09,  avg # of iterations =  3.0

     total cpu time spent up to now is        3.9 secs

     End of self-consistent calculation

     Number of k-points >= 100: set verbosity='high' to print the bands.

     the Fermi energy is     6.8967 ev

!    total energy              =    -318.46995960 Ry
     Harris-Foulkes estimate   =    -318.46995959 Ry
     estimated scf accuracy    <          9.4E-09 Ry

     The total energy is the sum of the following terms:

     one-electron contribution =    -162.25378157 Ry
     hartree contribution      =      97.63069317 Ry
     xc contribution           =     -85.96381582 Ry
     ewald contribution        =    -167.88333751 Ry
     smearing contrib. (-TS)   =       0.00028212 Ry

     convergence has been achieved in   6 iterations

     Forces acting on atoms (Ry/au):

     atom    1 type  1   force =    -0.00000000   -0.00000000   -0.00000000
     atom    2 type  1   force =     0.00000000    0.00000000    0.00000000

     Total force =     0.000000     Total SCF correction =     0.000000


     entering subroutine stress ...

          total   stress  (Ry/bohr**3)                   (kbar)     P=  -32.65
  -0.00022193  -0.00000000  -0.00000000        -32.65     -0.00     -0.00
  -0.00000000  -0.00022193   0.00000000         -0.00    -32.65      0.00
  -0.00000000   0.00000000  -0.00022193         -0.00      0.00    -32.65


     Writing output data file sn.alpha.save
 
     init_run     :      0.11s CPU      0.15s WALL (       1 calls)
     electrons    :      3.52s CPU      3.67s WALL (       1 calls)
     forces       :      0.02s CPU      0.02s WALL (       1 calls)
     stress       :      0.05s CPU      0.05s WALL (       1 calls)

     Called by init_run:
     wfcinit      :      0.06s CPU      0.07s WALL (       1 calls)
     potinit      :      0.00s CPU      0.02s WALL (       1 calls)

     Called by electrons:
     c_bands      :      3.16s CPU      3.20s WALL (       6 calls)
     sum_band     :      0.30s CPU      0.31s WALL (       6 calls)
     v_of_rho     :      0.01s CPU      0.01s WALL (       7 calls)
     newd         :      0.02s CPU      0.02s WALL (       7 calls)
     mix_rho      :      0.00s CPU      0.00s WALL (       6 calls)

     Called by c_bands:
     init_us_2    :      0.00s CPU      0.01s WALL (     255 calls)
     cegterg      :      1.50s CPU      1.50s WALL (     102 calls)

     Called by sum_band:
     sum_band:bec :      0.00s CPU      0.00s WALL (     102 calls)
     addusdens    :      0.02s CPU      0.02s WALL (       6 calls)

     Called by *egterg:
     h_psi        :      0.80s CPU      0.76s WALL (     416 calls)
     s_psi        :      0.02s CPU      0.02s WALL (     416 calls)
     g_psi        :      0.00s CPU      0.00s WALL (     297 calls)
     cdiaghg      :      0.61s CPU      0.65s WALL (     399 calls)

     Called by h_psi:
     add_vuspsi   :      0.01s CPU      0.02s WALL (     416 calls)

     General routines
     calbec       :      0.05s CPU      0.04s WALL (     603 calls)
     fft          :      0.01s CPU      0.01s WALL (     115 calls)
     fftw         :      0.78s CPU      0.75s WALL (   13348 calls)
     davcio       :      0.00s CPU      0.01s WALL (      17 calls)
 
     Parallel routines
     fft_scatter  :      0.38s CPU      0.34s WALL (   13463 calls)
 
     PWSCF        :     6.13s CPU        26.33s WALL

 
   This run was terminated on:  16:27: 3   9Apr2018            

=------------------------------------------------------------------------------=
   JOB DONE.
=------------------------------------------------------------------------------=
Application 30463138 resources: utime ~10070s, stime ~65s, Rss ~25228, inblocks ~3615808, outblocks ~3199260
