
     Program PWSCF v.5.4.0 starts on  9Apr2018 at 16:33:33 

     This program is part of the open-source Quantum ESPRESSO suite
     for quantum simulation of materials; please cite
         "P. Giannozzi et al., J. Phys.:Condens. Matter 21 395502 (2009);
          URL http://www.quantum-espresso.org", 
     in publications or presentations arising from this work. More details at
     http://www.quantum-espresso.org/quote

     Parallel version (MPI & OpenMP), running on     384 processor cores
     Number of MPI processes:               384
     Threads/MPI process:                     1
     K-points division:     npool     =      24
     R & G space division:  proc/nbgrp/npool/nimage =      16
     Waiting for input...
     Reading input from standard input
     Message from routine read_cards :
     DEPRECATED: no units specified in ATOMIC_POSITIONS card
     Message from routine read_cards :
     ATOMIC_POSITIONS: units set to alat

     Current dimensions of program PWSCF are:
     Max number of different atomic species (ntypx) = 10
     Max number of k-points (npk) =  40000
     Max angular momentum in pseudopotentials (lmaxx) =  3

     Subspace diagonalization in iterative solution of the eigenvalue problem:
     one sub-group per band group will be used
     scalapack distributed-memory algorithm (size of sub-group:  2*  2 procs)

 
     Parallelization info
     --------------------
     sticks:   dense  smooth     PW     G-vecs:    dense   smooth      PW
     Min          88      88     27                 2238     2238     372
     Max          89      89     28                 2243     2243     375
     Sum        1417    1417    433                35845    35845    5961
 


     bravais-lattice index     =            2
     lattice parameter (alat)  =      12.5779  a.u.
     unit-cell volume          =     497.4707 (a.u.)^3
     number of atoms/cell      =            2
     number of atomic types    =            1
     number of electrons       =        28.00
     number of Kohn-Sham states=           18
     kinetic-energy cutoff     =      66.0000  Ry
     charge density cutoff     =     264.0000  Ry
     convergence threshold     =      1.0E-08
     mixing beta               =       0.7000
     number of iterations used =            8  plain     mixing
     Exchange-correlation      =  SLA  PW   PBX  PBC ( 1  4  3  4 0 0)

     celldm(1)=  12.577930  celldm(2)=   0.000000  celldm(3)=   0.000000
     celldm(4)=   0.000000  celldm(5)=   0.000000  celldm(6)=   0.000000

     crystal axes: (cart. coord. in units of alat)
               a(1) = (  -0.500000   0.000000   0.500000 )  
               a(2) = (   0.000000   0.500000   0.500000 )  
               a(3) = (  -0.500000   0.500000   0.000000 )  

     reciprocal axes: (cart. coord. in units 2 pi/alat)
               b(1) = ( -1.000000 -1.000000  1.000000 )  
               b(2) = (  1.000000  1.000000  1.000000 )  
               b(3) = ( -1.000000  1.000000 -1.000000 )  


     PseudoPot. # 1 for Sn read from file:
     ./sn_pbe_v1.4.uspp.F.UPF
     MD5 check sum: 469debedee59599fedebd795477fea03
     Pseudo is Ultrasoft + core correction, Zval = 14.0
     Generated by new atomic code, or converted to UPF format
     Using radial grid of  891 points,  6 beta functions with: 
                l(1) =   0
                l(2) =   0
                l(3) =   1
                l(4) =   1
                l(5) =   2
                l(6) =   2
     Q(r) pseudized with  8 coefficients,  rinner =    1.350   1.350   1.350
                                                       1.350   1.350

     atomic species   valence    mass     pseudopotential
        Sn            14.00   118.71000     Sn( 1.00)

     24 Sym. Ops. (no inversion) found
          (note: 24 additional sym.ops. were found but ignored
           their fractional translations are incommensurate with FFT grid)


   Cartesian axes

     site n.     atom                  positions (alat units)
         1           Sn  tau(   1) = (   0.0000000   0.0000000   0.0000000  )
         2           Sn  tau(   2) = (   0.2500000   0.2500000   0.2500000  )

     number of k points=   408  Marzari-Vanderbilt smearing, width (Ry)=  0.0200

     Number of k-points >= 100: set verbosity='high' to print them.

     Dense  grid:    35845 G-vectors     FFT dimensions: (  45,  45,  45)

     Largest allocated arrays     est. size (Mb)     dimensions
        Kohn-Sham Wavefunctions         0.08 Mb     (     292,   18)
        NL pseudopotentials             0.16 Mb     (     292,   36)
        Each V/rho on FFT grid          0.09 Mb     (    6075)
        Each G-vector array             0.02 Mb     (    2243)
        G-vector shells                 0.00 Mb     (     339)
     Largest temporary arrays     est. size (Mb)     dimensions
        Auxiliary wavefunctions         0.32 Mb     (     292,   72)
        Each subspace H/S matrix        0.02 Mb     (      36,   36)
        Each <psi_i|beta_j> matrix      0.01 Mb     (      36,   18)
        Arrays for rho mixing           0.74 Mb     (    6075,    8)

     Check: negative/imaginary core charge=   -0.000003    0.000000

     Initial potential from superposition of free atoms

     starting charge   25.99991, renormalised to   28.00000
     Starting wfc are   18 randomized atomic wfcs

     total cpu time spent up to now is        0.5 secs

     per-process dynamical memory:    12.9 Mb

     Self-consistent Calculation

     iteration #  1     ecut=    66.00 Ry     beta=0.70
     Davidson diagonalization with overlap
     ethr =  1.00E-02,  avg # of iterations =  3.6

     total cpu time spent up to now is        2.0 secs

     total energy              =    -317.47451282 Ry
     Harris-Foulkes estimate   =    -319.56145069 Ry
     estimated scf accuracy    <       2.54326063 Ry

     iteration #  2     ecut=    66.00 Ry     beta=0.70
     Davidson diagonalization with overlap
     ethr =  9.08E-03,  avg # of iterations =  3.0

     total cpu time spent up to now is        3.2 secs

     total energy              =    -318.39978221 Ry
     Harris-Foulkes estimate   =    -318.73084077 Ry
     estimated scf accuracy    <       0.49423398 Ry

     iteration #  3     ecut=    66.00 Ry     beta=0.70
     Davidson diagonalization with overlap
     ethr =  1.77E-03,  avg # of iterations =  2.0

     total cpu time spent up to now is        4.1 secs

     total energy              =    -318.49784279 Ry
     Harris-Foulkes estimate   =    -318.49929313 Ry
     estimated scf accuracy    <       0.00300452 Ry

     iteration #  4     ecut=    66.00 Ry     beta=0.70
     Davidson diagonalization with overlap
     ethr =  1.07E-05,  avg # of iterations =  3.2

     total cpu time spent up to now is        5.2 secs

     total energy              =    -318.49849733 Ry
     Harris-Foulkes estimate   =    -318.49860366 Ry
     estimated scf accuracy    <       0.00016182 Ry

     iteration #  5     ecut=    66.00 Ry     beta=0.70
     Davidson diagonalization with overlap
     ethr =  5.78E-07,  avg # of iterations =  2.0

     total cpu time spent up to now is        6.4 secs

     total energy              =    -318.49854031 Ry
     Harris-Foulkes estimate   =    -318.49854108 Ry
     estimated scf accuracy    <       0.00000161 Ry

     iteration #  6     ecut=    66.00 Ry     beta=0.70
     Davidson diagonalization with overlap
     ethr =  5.76E-09,  avg # of iterations =  3.0

     total cpu time spent up to now is        7.9 secs

     End of self-consistent calculation

     Number of k-points >= 100: set verbosity='high' to print the bands.

     the Fermi energy is     6.8980 ev

!    total energy              =    -318.49854083 Ry
     Harris-Foulkes estimate   =    -318.49854082 Ry
     estimated scf accuracy    <          9.0E-09 Ry

     The total energy is the sum of the following terms:

     one-electron contribution =    -162.28340020 Ry
     hartree contribution      =      97.62741428 Ry
     xc contribution           =     -85.95949983 Ry
     ewald contribution        =    -167.88333748 Ry
     smearing contrib. (-TS)   =       0.00028239 Ry

     convergence has been achieved in   6 iterations

     Forces acting on atoms (Ry/au):

     atom    1 type  1   force =     0.00000000    0.00000000    0.00000000
     atom    2 type  1   force =     0.00000000    0.00000000    0.00000000

     Total force =     0.000000     Total SCF correction =     0.000000


     entering subroutine stress ...

          total   stress  (Ry/bohr**3)                   (kbar)     P=   -1.73
  -0.00001173  -0.00000000   0.00000000         -1.73     -0.00      0.00
  -0.00000000  -0.00001173  -0.00000000         -0.00     -1.73     -0.00
   0.00000000  -0.00000000  -0.00001173          0.00     -0.00     -1.73


     Writing output data file sn.alpha.save
 
     init_run     :      0.19s CPU      0.21s WALL (       1 calls)
     electrons    :      7.24s CPU      7.37s WALL (       1 calls)
     forces       :      0.06s CPU      0.05s WALL (       1 calls)
     stress       :      0.12s CPU      0.12s WALL (       1 calls)

     Called by init_run:
     wfcinit      :      0.10s CPU      0.10s WALL (       1 calls)
     potinit      :      0.01s CPU      0.01s WALL (       1 calls)

     Called by electrons:
     c_bands      :      6.50s CPU      6.57s WALL (       6 calls)
     sum_band     :      0.63s CPU      0.64s WALL (       6 calls)
     v_of_rho     :      0.02s CPU      0.02s WALL (       7 calls)
     newd         :      0.05s CPU      0.05s WALL (       7 calls)
     mix_rho      :      0.00s CPU      0.00s WALL (       6 calls)

     Called by c_bands:
     init_us_2    :      0.00s CPU      0.02s WALL (     255 calls)
     cegterg      :      2.15s CPU      2.17s WALL (     102 calls)

     Called by sum_band:
     sum_band:bec :      0.00s CPU      0.00s WALL (     102 calls)
     addusdens    :      0.06s CPU      0.07s WALL (       6 calls)

     Called by *egterg:
     h_psi        :      1.35s CPU      1.34s WALL (     415 calls)
     s_psi        :      0.04s CPU      0.04s WALL (     415 calls)
     g_psi        :      0.01s CPU      0.01s WALL (     296 calls)
     cdiaghg      :      0.58s CPU      0.65s WALL (     398 calls)

     Called by h_psi:
     add_vuspsi   :      0.05s CPU      0.04s WALL (     415 calls)

     General routines
     calbec       :      0.07s CPU      0.08s WALL (     602 calls)
     fft          :      0.02s CPU      0.02s WALL (     115 calls)
     fftw         :      1.34s CPU      1.34s WALL (   13390 calls)
     davcio       :      0.00s CPU      0.01s WALL (      17 calls)
 
     Parallel routines
     fft_scatter  :      0.64s CPU      0.63s WALL (   13505 calls)
 
     PWSCF        :    19.61s CPU        53.14s WALL

 
   This run was terminated on:  16:34:27   9Apr2018            

=------------------------------------------------------------------------------=
   JOB DONE.
=------------------------------------------------------------------------------=
Application 30463277 resources: utime ~20307s, stime ~71s, Rss ~32320, inblocks ~3624971, outblocks ~3863586
