
     Program PWSCF v.5.4.0 starts on  6Apr2018 at 23:59:25 

     This program is part of the open-source Quantum ESPRESSO suite
     for quantum simulation of materials; please cite
         "P. Giannozzi et al., J. Phys.:Condens. Matter 21 395502 (2009);
          URL http://www.quantum-espresso.org", 
     in publications or presentations arising from this work. More details at
     http://www.quantum-espresso.org/quote

     Parallel version (MPI & OpenMP), running on     192 processor cores
     Number of MPI processes:               192
     Threads/MPI process:                     1
     K-points division:     npool     =      24
     R & G space division:  proc/nbgrp/npool/nimage =       8
     Waiting for input...
     Reading input from standard input
     Message from routine read_cards :
     DEPRECATED: no units specified in ATOMIC_POSITIONS card
     Message from routine read_cards :
     ATOMIC_POSITIONS: units set to alat

     Current dimensions of program PWSCF are:
     Max number of different atomic species (ntypx) = 10
     Max number of k-points (npk) =  40000
     Max angular momentum in pseudopotentials (lmaxx) =  3

     Subspace diagonalization in iterative solution of the eigenvalue problem:
     one sub-group per band group will be used
     scalapack distributed-memory algorithm (size of sub-group:  2*  2 procs)

 
     Parallelization info
     --------------------
     sticks:   dense  smooth     PW     G-vecs:    dense   smooth      PW
     Min          93      93     30                 1671     1671     302
     Max          94      94     31                 1673     1673     304
     Sum         745     745    241                13371    13371    2421
 


     bravais-lattice index     =            2
     lattice parameter (alat)  =      12.5779  a.u.
     unit-cell volume          =     497.4707 (a.u.)^3
     number of atoms/cell      =            2
     number of atomic types    =            1
     number of electrons       =        28.00
     number of Kohn-Sham states=           14
     kinetic-energy cutoff     =      34.0000  Ry
     charge density cutoff     =     136.0000  Ry
     convergence threshold     =      1.0E-08
     mixing beta               =       0.7000
     number of iterations used =            8  plain     mixing
     Exchange-correlation      =  SLA  PW   PBX  PBC ( 1  4  3  4 0 0)

     celldm(1)=  12.577930  celldm(2)=   0.000000  celldm(3)=   0.000000
     celldm(4)=   0.000000  celldm(5)=   0.000000  celldm(6)=   0.000000

     crystal axes: (cart. coord. in units of alat)
               a(1) = (  -0.500000   0.000000   0.500000 )  
               a(2) = (   0.000000   0.500000   0.500000 )  
               a(3) = (  -0.500000   0.500000   0.000000 )  

     reciprocal axes: (cart. coord. in units 2 pi/alat)
               b(1) = ( -1.000000 -1.000000  1.000000 )  
               b(2) = (  1.000000  1.000000  1.000000 )  
               b(3) = ( -1.000000  1.000000 -1.000000 )  


     PseudoPot. # 1 for Sn read from file:
     ./sn_pbe_v1.4.uspp.F.UPF
     MD5 check sum: 469debedee59599fedebd795477fea03
     Pseudo is Ultrasoft + core correction, Zval = 14.0
     Generated by new atomic code, or converted to UPF format
     Using radial grid of  891 points,  6 beta functions with: 
                l(1) =   0
                l(2) =   0
                l(3) =   1
                l(4) =   1
                l(5) =   2
                l(6) =   2
     Q(r) pseudized with  8 coefficients,  rinner =    1.350   1.350   1.350
                                                       1.350   1.350

     atomic species   valence    mass     pseudopotential
        Sn            14.00   118.71000     Sn( 1.00)

     48 Sym. Ops., with inversion, found (24 have fractional translation)



   Cartesian axes

     site n.     atom                  positions (alat units)
         1           Sn  tau(   1) = (   0.0000000   0.0000000   0.0000000  )
         2           Sn  tau(   2) = (   0.2500000   0.2500000   0.2500000  )

     number of k points=   408

     Number of k-points >= 100: set verbosity='high' to print them.

     Dense  grid:    13371 G-vectors     FFT dimensions: (  36,  36,  36)

     Largest allocated arrays     est. size (Mb)     dimensions
        Kohn-Sham Wavefunctions         0.05 Mb     (     217,   14)
        NL pseudopotentials             0.12 Mb     (     217,   36)
        Each V/rho on FFT grid          0.10 Mb     (    6480)
        Each G-vector array             0.01 Mb     (    1672)
        G-vector shells                 0.00 Mb     (     180)
     Largest temporary arrays     est. size (Mb)     dimensions
        Auxiliary wavefunctions         0.19 Mb     (     217,   56)
        Each subspace H/S matrix        0.01 Mb     (      28,   28)
        Each <psi_i|beta_j> matrix      0.01 Mb     (      36,   14)
        Arrays for rho mixing           0.79 Mb     (    6480,    8)

     Check: negative/imaginary core charge=   -0.000004    0.000000

     Initial potential from superposition of free atoms

     starting charge   25.99991, renormalised to   28.00000
     Starting wfc are   18 randomized atomic wfcs

     total cpu time spent up to now is        0.3 secs

     per-process dynamical memory:    11.3 Mb

     Self-consistent Calculation

     iteration #  1     ecut=    34.00 Ry     beta=0.70
     Davidson diagonalization with overlap
     ethr =  1.00E-02,  avg # of iterations =  2.6

     total cpu time spent up to now is        0.6 secs

     total energy              =    -317.46404946 Ry
     Harris-Foulkes estimate   =    -319.52910352 Ry
     estimated scf accuracy    <       2.51639460 Ry

     iteration #  2     ecut=    34.00 Ry     beta=0.70
     Davidson diagonalization with overlap
     ethr =  8.99E-03,  avg # of iterations =  3.0

     total cpu time spent up to now is        1.0 secs

     total energy              =    -318.37364187 Ry
     Harris-Foulkes estimate   =    -318.69336688 Ry
     estimated scf accuracy    <       0.47611275 Ry

     iteration #  3     ecut=    34.00 Ry     beta=0.70
     Davidson diagonalization with overlap
     ethr =  1.70E-03,  avg # of iterations =  2.0

     total cpu time spent up to now is        1.2 secs

     total energy              =    -318.46906620 Ry
     Harris-Foulkes estimate   =    -318.47065210 Ry
     estimated scf accuracy    <       0.00289741 Ry

     iteration #  4     ecut=    34.00 Ry     beta=0.70
     Davidson diagonalization with overlap
     ethr =  1.03E-05,  avg # of iterations =  3.1

     total cpu time spent up to now is        1.6 secs

     total energy              =    -318.46994382 Ry
     Harris-Foulkes estimate   =    -318.47006662 Ry
     estimated scf accuracy    <       0.00017845 Ry

     iteration #  5     ecut=    34.00 Ry     beta=0.70
     Davidson diagonalization with overlap
     ethr =  6.37E-07,  avg # of iterations =  3.0

     total cpu time spent up to now is        1.9 secs

     total energy              =    -318.46999945 Ry
     Harris-Foulkes estimate   =    -318.47000076 Ry
     estimated scf accuracy    <       0.00000226 Ry

     iteration #  6     ecut=    34.00 Ry     beta=0.70
     Davidson diagonalization with overlap
     ethr =  8.07E-09,  avg # of iterations =  3.8

     total cpu time spent up to now is        2.3 secs

     total energy              =    -318.47000050 Ry
     Harris-Foulkes estimate   =    -318.47000052 Ry
     estimated scf accuracy    <       0.00000004 Ry

     iteration #  7     ecut=    34.00 Ry     beta=0.70
     Davidson diagonalization with overlap
     ethr =  1.56E-10,  avg # of iterations =  3.2

     total cpu time spent up to now is        2.7 secs

     End of self-consistent calculation

     Number of k-points >= 100: set verbosity='high' to print the bands.

     highest occupied level (ev):     6.9850

!    total energy              =    -318.47000051 Ry
     Harris-Foulkes estimate   =    -318.47000051 Ry
     estimated scf accuracy    <          3.6E-09 Ry

     The total energy is the sum of the following terms:

     one-electron contribution =    -162.25650203 Ry
     hartree contribution      =      97.63398693 Ry
     xc contribution           =     -85.96414790 Ry
     ewald contribution        =    -167.88333751 Ry

     convergence has been achieved in   7 iterations

     Forces acting on atoms (Ry/au):

     atom    1 type  1   force =    -0.00000000   -0.00000000    0.00000000
     atom    2 type  1   force =     0.00000000    0.00000000   -0.00000000

     Total force =     0.000000     Total SCF correction =     0.000000


     entering subroutine stress ...

          total   stress  (Ry/bohr**3)                   (kbar)     P=  -33.42
  -0.00022717   0.00000000   0.00000000        -33.42      0.00      0.00
   0.00000000  -0.00022717  -0.00000000          0.00    -33.42     -0.00
   0.00000000  -0.00000000  -0.00022717          0.00     -0.00    -33.42


     Writing output data file sn.alpha.save
 
     init_run     :      0.16s CPU      0.17s WALL (       1 calls)
     electrons    :      2.27s CPU      2.41s WALL (       1 calls)
     forces       :      0.03s CPU      0.03s WALL (       1 calls)
     stress       :      0.07s CPU      0.07s WALL (       1 calls)

     Called by init_run:
     wfcinit      :      0.08s CPU      0.08s WALL (       1 calls)
     potinit      :      0.00s CPU      0.01s WALL (       1 calls)

     Called by electrons:
     c_bands      :      1.96s CPU      2.04s WALL (       7 calls)
     sum_band     :      0.22s CPU      0.24s WALL (       7 calls)
     v_of_rho     :      0.02s CPU      0.03s WALL (       8 calls)
     newd         :      0.06s CPU      0.05s WALL (       8 calls)
     mix_rho      :      0.00s CPU      0.00s WALL (       7 calls)

     Called by c_bands:
     init_us_2    :      0.02s CPU      0.02s WALL (     289 calls)
     cegterg      :      1.71s CPU      1.73s WALL (     119 calls)

     Called by sum_band:
     sum_band:bec :      0.00s CPU      0.00s WALL (     119 calls)
     addusdens    :      0.06s CPU      0.06s WALL (       7 calls)

     Called by *egterg:
     h_psi        :      0.92s CPU      0.93s WALL (     523 calls)
     s_psi        :      0.02s CPU      0.03s WALL (     523 calls)
     g_psi        :      0.00s CPU      0.01s WALL (     387 calls)
     cdiaghg      :      0.67s CPU      0.65s WALL (     506 calls)

     Called by h_psi:
     add_vuspsi   :      0.03s CPU      0.03s WALL (     523 calls)

     General routines
     calbec       :      0.07s CPU      0.06s WALL (     727 calls)
     fft          :      0.01s CPU      0.01s WALL (     128 calls)
     fftw         :      0.85s CPU      0.88s WALL (   13170 calls)
     davcio       :      0.00s CPU      0.01s WALL (      17 calls)
 
     Parallel routines
     fft_scatter  :      0.22s CPU      0.24s WALL (   13298 calls)
 
     PWSCF        :     3.61s CPU        15.72s WALL

 
   This run was terminated on:  23:59:40   6Apr2018            

=------------------------------------------------------------------------------=
   JOB DONE.
=------------------------------------------------------------------------------=
Application 30443823 resources: utime ~2977s, stime ~32s, Rss ~28448, inblocks ~1802085, outblocks ~1706778
