
     Program PWSCF v.5.4.0 starts on  7Apr2018 at  0: 1:29 

     This program is part of the open-source Quantum ESPRESSO suite
     for quantum simulation of materials; please cite
         "P. Giannozzi et al., J. Phys.:Condens. Matter 21 395502 (2009);
          URL http://www.quantum-espresso.org", 
     in publications or presentations arising from this work. More details at
     http://www.quantum-espresso.org/quote

     Parallel version (MPI & OpenMP), running on     192 processor cores
     Number of MPI processes:               192
     Threads/MPI process:                     1
     K-points division:     npool     =      24
     R & G space division:  proc/nbgrp/npool/nimage =       8
     Waiting for input...
     Reading input from standard input
     Message from routine read_cards :
     DEPRECATED: no units specified in ATOMIC_POSITIONS card
     Message from routine read_cards :
     ATOMIC_POSITIONS: units set to alat

     Current dimensions of program PWSCF are:
     Max number of different atomic species (ntypx) = 10
     Max number of k-points (npk) =  40000
     Max angular momentum in pseudopotentials (lmaxx) =  3

     Subspace diagonalization in iterative solution of the eigenvalue problem:
     one sub-group per band group will be used
     scalapack distributed-memory algorithm (size of sub-group:  2*  2 procs)

 
     Parallelization info
     --------------------
     sticks:   dense  smooth     PW     G-vecs:    dense   smooth      PW
     Min         145     145     45                 3320     3320     570
     Max         150     150     46                 3321     3321     573
     Sum        1165    1165    361                26565    26565    4573
 


     bravais-lattice index     =            2
     lattice parameter (alat)  =      12.5779  a.u.
     unit-cell volume          =     497.4707 (a.u.)^3
     number of atoms/cell      =            2
     number of atomic types    =            1
     number of electrons       =        28.00
     number of Kohn-Sham states=           14
     kinetic-energy cutoff     =      54.0000  Ry
     charge density cutoff     =     216.0000  Ry
     convergence threshold     =      1.0E-08
     mixing beta               =       0.7000
     number of iterations used =            8  plain     mixing
     Exchange-correlation      =  SLA  PW   PBX  PBC ( 1  4  3  4 0 0)

     celldm(1)=  12.577930  celldm(2)=   0.000000  celldm(3)=   0.000000
     celldm(4)=   0.000000  celldm(5)=   0.000000  celldm(6)=   0.000000

     crystal axes: (cart. coord. in units of alat)
               a(1) = (  -0.500000   0.000000   0.500000 )  
               a(2) = (   0.000000   0.500000   0.500000 )  
               a(3) = (  -0.500000   0.500000   0.000000 )  

     reciprocal axes: (cart. coord. in units 2 pi/alat)
               b(1) = ( -1.000000 -1.000000  1.000000 )  
               b(2) = (  1.000000  1.000000  1.000000 )  
               b(3) = ( -1.000000  1.000000 -1.000000 )  


     PseudoPot. # 1 for Sn read from file:
     ./sn_pbe_v1.4.uspp.F.UPF
     MD5 check sum: 469debedee59599fedebd795477fea03
     Pseudo is Ultrasoft + core correction, Zval = 14.0
     Generated by new atomic code, or converted to UPF format
     Using radial grid of  891 points,  6 beta functions with: 
                l(1) =   0
                l(2) =   0
                l(3) =   1
                l(4) =   1
                l(5) =   2
                l(6) =   2
     Q(r) pseudized with  8 coefficients,  rinner =    1.350   1.350   1.350
                                                       1.350   1.350

     atomic species   valence    mass     pseudopotential
        Sn            14.00   118.71000     Sn( 1.00)

     24 Sym. Ops. (no inversion) found
          (note: 24 additional sym.ops. were found but ignored
           their fractional translations are incommensurate with FFT grid)


   Cartesian axes

     site n.     atom                  positions (alat units)
         1           Sn  tau(   1) = (   0.0000000   0.0000000   0.0000000  )
         2           Sn  tau(   2) = (   0.2500000   0.2500000   0.2500000  )

     number of k points=   408

     Number of k-points >= 100: set verbosity='high' to print them.

     Dense  grid:    26565 G-vectors     FFT dimensions: (  45,  45,  45)

     Largest allocated arrays     est. size (Mb)     dimensions
        Kohn-Sham Wavefunctions         0.09 Mb     (     425,   14)
        NL pseudopotentials             0.23 Mb     (     425,   36)
        Each V/rho on FFT grid          0.19 Mb     (   12150)
        Each G-vector array             0.03 Mb     (    3321)
        G-vector shells                 0.00 Mb     (     280)
     Largest temporary arrays     est. size (Mb)     dimensions
        Auxiliary wavefunctions         0.36 Mb     (     425,   56)
        Each subspace H/S matrix        0.01 Mb     (      28,   28)
        Each <psi_i|beta_j> matrix      0.01 Mb     (      36,   14)
        Arrays for rho mixing           1.48 Mb     (   12150,    8)

     Initial potential from superposition of free atoms

     starting charge   25.99991, renormalised to   28.00000
     Starting wfc are   18 randomized atomic wfcs

     total cpu time spent up to now is        0.4 secs

     per-process dynamical memory:    13.7 Mb

     Self-consistent Calculation

     iteration #  1     ecut=    54.00 Ry     beta=0.70
     Davidson diagonalization with overlap
     ethr =  1.00E-02,  avg # of iterations =  2.6

     total cpu time spent up to now is        0.9 secs

     total energy              =    -317.49044847 Ry
     Harris-Foulkes estimate   =    -319.55501192 Ry
     estimated scf accuracy    <       2.51511232 Ry

     iteration #  2     ecut=    54.00 Ry     beta=0.70
     Davidson diagonalization with overlap
     ethr =  8.98E-03,  avg # of iterations =  3.0

     total cpu time spent up to now is        1.4 secs

     total energy              =    -318.39933974 Ry
     Harris-Foulkes estimate   =    -318.71755377 Ry
     estimated scf accuracy    <       0.47367451 Ry

     iteration #  3     ecut=    54.00 Ry     beta=0.70
     Davidson diagonalization with overlap
     ethr =  1.69E-03,  avg # of iterations =  2.0

     total cpu time spent up to now is        1.9 secs

     total energy              =    -318.49442384 Ry
     Harris-Foulkes estimate   =    -318.49598847 Ry
     estimated scf accuracy    <       0.00287010 Ry

     iteration #  4     ecut=    54.00 Ry     beta=0.70
     Davidson diagonalization with overlap
     ethr =  1.03E-05,  avg # of iterations =  3.0

     total cpu time spent up to now is        2.4 secs

     total energy              =    -318.49530406 Ry
     Harris-Foulkes estimate   =    -318.49542129 Ry
     estimated scf accuracy    <       0.00017360 Ry

     iteration #  5     ecut=    54.00 Ry     beta=0.70
     Davidson diagonalization with overlap
     ethr =  6.20E-07,  avg # of iterations =  3.0

     total cpu time spent up to now is        2.9 secs

     total energy              =    -318.49535745 Ry
     Harris-Foulkes estimate   =    -318.49535824 Ry
     estimated scf accuracy    <       0.00000158 Ry

     iteration #  6     ecut=    54.00 Ry     beta=0.70
     Davidson diagonalization with overlap
     ethr =  5.66E-09,  avg # of iterations =  3.9

     total cpu time spent up to now is        3.5 secs

     total energy              =    -318.49535825 Ry
     Harris-Foulkes estimate   =    -318.49535829 Ry
     estimated scf accuracy    <       0.00000007 Ry

     iteration #  7     ecut=    54.00 Ry     beta=0.70
     Davidson diagonalization with overlap
     ethr =  2.44E-10,  avg # of iterations =  3.1

     total cpu time spent up to now is        4.1 secs

     End of self-consistent calculation

     Number of k-points >= 100: set verbosity='high' to print the bands.

     highest occupied level (ev):     6.9856

!    total energy              =    -318.49535828 Ry
     Harris-Foulkes estimate   =    -318.49535828 Ry
     estimated scf accuracy    <          2.7E-09 Ry

     The total energy is the sum of the following terms:

     one-electron contribution =    -162.28233800 Ry
     hartree contribution      =      97.63060253 Ry
     xc contribution           =     -85.96028531 Ry
     ewald contribution        =    -167.88333751 Ry

     convergence has been achieved in   7 iterations

     Forces acting on atoms (Ry/au):

     atom    1 type  1   force =     0.00000000    0.00000000    0.00000000
     atom    2 type  1   force =    -0.00000000   -0.00000000   -0.00000000

     Total force =     0.000000     Total SCF correction =     0.000000


     entering subroutine stress ...

          total   stress  (Ry/bohr**3)                   (kbar)     P=  -12.50
  -0.00008494  -0.00000000   0.00000000        -12.50     -0.00      0.00
  -0.00000000  -0.00008494   0.00000000         -0.00    -12.50      0.00
  -0.00000000  -0.00000000  -0.00008494         -0.00     -0.00    -12.50


     Writing output data file sn.alpha.save
 
     init_run     :      0.24s CPU      0.26s WALL (       1 calls)
     electrons    :      3.60s CPU      3.75s WALL (       1 calls)
     forces       :      0.05s CPU      0.05s WALL (       1 calls)
     stress       :      0.14s CPU      0.14s WALL (       1 calls)

     Called by init_run:
     wfcinit      :      0.12s CPU      0.13s WALL (       1 calls)
     potinit      :      0.01s CPU      0.01s WALL (       1 calls)

     Called by electrons:
     c_bands      :      3.02s CPU      3.11s WALL (       7 calls)
     sum_band     :      0.44s CPU      0.46s WALL (       7 calls)
     v_of_rho     :      0.05s CPU      0.05s WALL (       8 calls)
     newd         :      0.08s CPU      0.09s WALL (       8 calls)
     mix_rho      :      0.00s CPU      0.00s WALL (       7 calls)

     Called by c_bands:
     init_us_2    :      0.02s CPU      0.03s WALL (     289 calls)
     cegterg      :      2.65s CPU      2.69s WALL (     119 calls)

     Called by sum_band:
     sum_band:bec :      0.00s CPU      0.00s WALL (     119 calls)
     addusdens    :      0.12s CPU      0.13s WALL (       7 calls)

     Called by *egterg:
     h_psi        :      1.73s CPU      1.77s WALL (     518 calls)
     s_psi        :      0.04s CPU      0.05s WALL (     518 calls)
     g_psi        :      0.00s CPU      0.01s WALL (     382 calls)
     cdiaghg      :      0.70s CPU      0.65s WALL (     501 calls)

     Called by h_psi:
     add_vuspsi   :      0.07s CPU      0.06s WALL (     518 calls)

     General routines
     calbec       :      0.09s CPU      0.10s WALL (     722 calls)
     fft          :      0.03s CPU      0.03s WALL (     128 calls)
     fftw         :      1.66s CPU      1.70s WALL (   13112 calls)
     davcio       :      0.00s CPU      0.01s WALL (      17 calls)
 
     Parallel routines
     fft_scatter  :      0.39s CPU      0.38s WALL (   13240 calls)
 
     PWSCF        :     4.98s CPU        18.83s WALL

 
   This run was terminated on:   0: 1:48   7Apr2018            

=------------------------------------------------------------------------------=
   JOB DONE.
=------------------------------------------------------------------------------=
Application 30443833 resources: utime ~3585s, stime ~33s, Rss ~37520, inblocks ~1802344, outblocks ~2008063
