
     Program PWSCF v.5.4.0 starts on  7Apr2018 at  0: 6:57 

     This program is part of the open-source Quantum ESPRESSO suite
     for quantum simulation of materials; please cite
         "P. Giannozzi et al., J. Phys.:Condens. Matter 21 395502 (2009);
          URL http://www.quantum-espresso.org", 
     in publications or presentations arising from this work. More details at
     http://www.quantum-espresso.org/quote

     Parallel version (MPI & OpenMP), running on     192 processor cores
     Number of MPI processes:               192
     Threads/MPI process:                     1
     K-points division:     npool     =      24
     R & G space division:  proc/nbgrp/npool/nimage =       8
     Waiting for input...
     Reading input from standard input
     Message from routine read_cards :
     DEPRECATED: no units specified in ATOMIC_POSITIONS card
     Message from routine read_cards :
     ATOMIC_POSITIONS: units set to alat

     Current dimensions of program PWSCF are:
     Max number of different atomic species (ntypx) = 10
     Max number of k-points (npk) =  40000
     Max angular momentum in pseudopotentials (lmaxx) =  3

     Subspace diagonalization in iterative solution of the eigenvalue problem:
     one sub-group per band group will be used
     scalapack distributed-memory algorithm (size of sub-group:  2*  2 procs)

 
     Parallelization info
     --------------------
     sticks:   dense  smooth     PW     G-vecs:    dense   smooth      PW
     Min         264     264     78                 8109     8109    1272
     Max         267     267     79                 8110     8110    1273
     Sum        2125    2125    625                64875    64875   10177
 


     bravais-lattice index     =            2
     lattice parameter (alat)  =      12.5779  a.u.
     unit-cell volume          =     497.4707 (a.u.)^3
     number of atoms/cell      =            2
     number of atomic types    =            1
     number of electrons       =        28.00
     number of Kohn-Sham states=           14
     kinetic-energy cutoff     =      98.0000  Ry
     charge density cutoff     =     392.0000  Ry
     convergence threshold     =      1.0E-08
     mixing beta               =       0.7000
     number of iterations used =            8  plain     mixing
     Exchange-correlation      =  SLA  PW   PBX  PBC ( 1  4  3  4 0 0)

     celldm(1)=  12.577930  celldm(2)=   0.000000  celldm(3)=   0.000000
     celldm(4)=   0.000000  celldm(5)=   0.000000  celldm(6)=   0.000000

     crystal axes: (cart. coord. in units of alat)
               a(1) = (  -0.500000   0.000000   0.500000 )  
               a(2) = (   0.000000   0.500000   0.500000 )  
               a(3) = (  -0.500000   0.500000   0.000000 )  

     reciprocal axes: (cart. coord. in units 2 pi/alat)
               b(1) = ( -1.000000 -1.000000  1.000000 )  
               b(2) = (  1.000000  1.000000  1.000000 )  
               b(3) = ( -1.000000  1.000000 -1.000000 )  


     PseudoPot. # 1 for Sn read from file:
     ./sn_pbe_v1.4.uspp.F.UPF
     MD5 check sum: 469debedee59599fedebd795477fea03
     Pseudo is Ultrasoft + core correction, Zval = 14.0
     Generated by new atomic code, or converted to UPF format
     Using radial grid of  891 points,  6 beta functions with: 
                l(1) =   0
                l(2) =   0
                l(3) =   1
                l(4) =   1
                l(5) =   2
                l(6) =   2
     Q(r) pseudized with  8 coefficients,  rinner =    1.350   1.350   1.350
                                                       1.350   1.350

     atomic species   valence    mass     pseudopotential
        Sn            14.00   118.71000     Sn( 1.00)

     48 Sym. Ops., with inversion, found (24 have fractional translation)



   Cartesian axes

     site n.     atom                  positions (alat units)
         1           Sn  tau(   1) = (   0.0000000   0.0000000   0.0000000  )
         2           Sn  tau(   2) = (   0.2500000   0.2500000   0.2500000  )

     number of k points=   408

     Number of k-points >= 100: set verbosity='high' to print them.

     Dense  grid:    64875 G-vectors     FFT dimensions: (  60,  60,  60)

     Largest allocated arrays     est. size (Mb)     dimensions
        Kohn-Sham Wavefunctions         0.22 Mb     (    1037,   14)
        NL pseudopotentials             0.57 Mb     (    1037,   36)
        Each V/rho on FFT grid          0.44 Mb     (   28800)
        Each G-vector array             0.06 Mb     (    8109)
        G-vector shells                 0.00 Mb     (     519)
     Largest temporary arrays     est. size (Mb)     dimensions
        Auxiliary wavefunctions         0.89 Mb     (    1037,   56)
        Each subspace H/S matrix        0.01 Mb     (      28,   28)
        Each <psi_i|beta_j> matrix      0.01 Mb     (      36,   14)
        Arrays for rho mixing           3.52 Mb     (   28800,    8)

     Check: negative/imaginary core charge=   -0.000001    0.000000

     Initial potential from superposition of free atoms

     starting charge   25.99991, renormalised to   28.00000
     Starting wfc are   18 randomized atomic wfcs

     total cpu time spent up to now is        0.7 secs

     per-process dynamical memory:    20.1 Mb

     Self-consistent Calculation

     iteration #  1     ecut=    98.00 Ry     beta=0.70
     Davidson diagonalization with overlap
     ethr =  1.00E-02,  avg # of iterations =  2.7

     total cpu time spent up to now is        1.7 secs

     total energy              =    -317.49804024 Ry
     Harris-Foulkes estimate   =    -319.56194125 Ry
     estimated scf accuracy    <       2.51436353 Ry

     iteration #  2     ecut=    98.00 Ry     beta=0.70
     Davidson diagonalization with overlap
     ethr =  8.98E-03,  avg # of iterations =  3.0

     total cpu time spent up to now is        2.8 secs

     total energy              =    -318.40657894 Ry
     Harris-Foulkes estimate   =    -318.72429671 Ry
     estimated scf accuracy    <       0.47286854 Ry

     iteration #  3     ecut=    98.00 Ry     beta=0.70
     Davidson diagonalization with overlap
     ethr =  1.69E-03,  avg # of iterations =  2.0

     total cpu time spent up to now is        3.8 secs

     total energy              =    -318.50152007 Ry
     Harris-Foulkes estimate   =    -318.50307939 Ry
     estimated scf accuracy    <       0.00286422 Ry

     iteration #  4     ecut=    98.00 Ry     beta=0.70
     Davidson diagonalization with overlap
     ethr =  1.02E-05,  avg # of iterations =  3.0

     total cpu time spent up to now is        4.9 secs

     total energy              =    -318.50240366 Ry
     Harris-Foulkes estimate   =    -318.50251977 Ry
     estimated scf accuracy    <       0.00017242 Ry

     iteration #  5     ecut=    98.00 Ry     beta=0.70
     Davidson diagonalization with overlap
     ethr =  6.16E-07,  avg # of iterations =  3.0

     total cpu time spent up to now is        6.0 secs

     total energy              =    -318.50245666 Ry
     Harris-Foulkes estimate   =    -318.50245738 Ry
     estimated scf accuracy    <       0.00000150 Ry

     iteration #  6     ecut=    98.00 Ry     beta=0.70
     Davidson diagonalization with overlap
     ethr =  5.34E-09,  avg # of iterations =  3.9

     total cpu time spent up to now is        7.3 secs

     total energy              =    -318.50245743 Ry
     Harris-Foulkes estimate   =    -318.50245747 Ry
     estimated scf accuracy    <       0.00000007 Ry

     iteration #  7     ecut=    98.00 Ry     beta=0.70
     Davidson diagonalization with overlap
     ethr =  2.52E-10,  avg # of iterations =  3.1

     total cpu time spent up to now is        8.4 secs

     End of self-consistent calculation

     Number of k-points >= 100: set verbosity='high' to print the bands.

     highest occupied level (ev):     6.9857

!    total energy              =    -318.50245746 Ry
     Harris-Foulkes estimate   =    -318.50245746 Ry
     estimated scf accuracy    <          2.6E-09 Ry

     The total energy is the sum of the following terms:

     one-electron contribution =    -162.29007532 Ry
     hartree contribution      =      97.63083886 Ry
     xc contribution           =     -85.95988352 Ry
     ewald contribution        =    -167.88333747 Ry

     convergence has been achieved in   7 iterations

     Forces acting on atoms (Ry/au):

     atom    1 type  1   force =    -0.00000000   -0.00000000   -0.00000000
     atom    2 type  1   force =     0.00000000    0.00000000    0.00000000

     Total force =     0.000000     Total SCF correction =     0.000000


     entering subroutine stress ...

          total   stress  (Ry/bohr**3)                   (kbar)     P=   -2.08
  -0.00001417   0.00000000  -0.00000000         -2.08      0.00     -0.00
   0.00000000  -0.00001417   0.00000000          0.00     -2.08      0.00
  -0.00000000   0.00000000  -0.00001417         -0.00      0.00     -2.08


     Writing output data file sn.alpha.save
 
     init_run     :      0.48s CPU      0.53s WALL (       1 calls)
     electrons    :      7.67s CPU      7.80s WALL (       1 calls)
     forces       :      0.10s CPU      0.11s WALL (       1 calls)
     stress       :      0.34s CPU      0.33s WALL (       1 calls)

     Called by init_run:
     wfcinit      :      0.25s CPU      0.27s WALL (       1 calls)
     potinit      :      0.02s CPU      0.03s WALL (       1 calls)

     Called by electrons:
     c_bands      :      6.29s CPU      6.37s WALL (       7 calls)
     sum_band     :      1.04s CPU      1.06s WALL (       7 calls)
     v_of_rho     :      0.12s CPU      0.13s WALL (       8 calls)
     newd         :      0.20s CPU      0.22s WALL (       8 calls)
     mix_rho      :      0.02s CPU      0.02s WALL (       7 calls)

     Called by c_bands:
     init_us_2    :      0.06s CPU      0.10s WALL (     289 calls)
     cegterg      :      5.44s CPU      5.48s WALL (     119 calls)

     Called by sum_band:
     sum_band:bec :      0.00s CPU      0.00s WALL (     119 calls)
     addusdens    :      0.30s CPU      0.32s WALL (       7 calls)

     Called by *egterg:
     h_psi        :      4.00s CPU      4.08s WALL (     519 calls)
     s_psi        :      0.14s CPU      0.12s WALL (     519 calls)
     g_psi        :      0.03s CPU      0.03s WALL (     383 calls)
     cdiaghg      :      0.68s CPU      0.68s WALL (     502 calls)

     Called by h_psi:
     add_vuspsi   :      0.10s CPU      0.14s WALL (     519 calls)

     General routines
     calbec       :      0.29s CPU      0.26s WALL (     723 calls)
     fft          :      0.06s CPU      0.07s WALL (     128 calls)
     fftw         :      3.64s CPU      3.74s WALL (   13094 calls)
     davcio       :      0.00s CPU      0.05s WALL (      17 calls)
 
     Parallel routines
     fft_scatter  :      0.86s CPU      0.91s WALL (   13222 calls)
 
     PWSCF        :     9.66s CPU        22.18s WALL

 
   This run was terminated on:   0: 7:19   7Apr2018            

=------------------------------------------------------------------------------=
   JOB DONE.
=------------------------------------------------------------------------------=
Application 30443869 resources: utime ~4212s, stime ~45s, Rss ~58332, inblocks ~1802945, outblocks ~2878081
