
     Program PWSCF v.5.4.0 starts on  9Apr2018 at 16:21:42 

     This program is part of the open-source Quantum ESPRESSO suite
     for quantum simulation of materials; please cite
         "P. Giannozzi et al., J. Phys.:Condens. Matter 21 395502 (2009);
          URL http://www.quantum-espresso.org", 
     in publications or presentations arising from this work. More details at
     http://www.quantum-espresso.org/quote

     Parallel version (MPI & OpenMP), running on     384 processor cores
     Number of MPI processes:               384
     Threads/MPI process:                     1
     K-points division:     npool     =      24
     R & G space division:  proc/nbgrp/npool/nimage =      16
     Waiting for input...
     Reading input from standard input
     Message from routine read_cards :
     DEPRECATED: no units specified in ATOMIC_POSITIONS card
     Message from routine read_cards :
     ATOMIC_POSITIONS: units set to alat

     Current dimensions of program PWSCF are:
     Max number of different atomic species (ntypx) = 10
     Max number of k-points (npk) =  40000
     Max angular momentum in pseudopotentials (lmaxx) =  3

     Subspace diagonalization in iterative solution of the eigenvalue problem:
     one sub-group per band group will be used
     scalapack distributed-memory algorithm (size of sub-group:  2*  2 procs)

 
     Parallelization info
     --------------------
     sticks:   dense  smooth     PW     G-vecs:    dense   smooth      PW
     Min          13      13      5                  130      130      32
     Max          14      14      6                  133      133      35
     Sum         211     211     85                 2109     2109     531
 


     bravais-lattice index     =            2
     lattice parameter (alat)  =      12.5779  a.u.
     unit-cell volume          =     497.4707 (a.u.)^3
     number of atoms/cell      =            2
     number of atomic types    =            1
     number of electrons       =        28.00
     number of Kohn-Sham states=           18
     kinetic-energy cutoff     =      10.0000  Ry
     charge density cutoff     =      40.0000  Ry
     convergence threshold     =      1.0E-08
     mixing beta               =       0.7000
     number of iterations used =            8  plain     mixing
     Exchange-correlation      =  SLA  PW   PBX  PBC ( 1  4  3  4 0 0)

     celldm(1)=  12.577930  celldm(2)=   0.000000  celldm(3)=   0.000000
     celldm(4)=   0.000000  celldm(5)=   0.000000  celldm(6)=   0.000000

     crystal axes: (cart. coord. in units of alat)
               a(1) = (  -0.500000   0.000000   0.500000 )  
               a(2) = (   0.000000   0.500000   0.500000 )  
               a(3) = (  -0.500000   0.500000   0.000000 )  

     reciprocal axes: (cart. coord. in units 2 pi/alat)
               b(1) = ( -1.000000 -1.000000  1.000000 )  
               b(2) = (  1.000000  1.000000  1.000000 )  
               b(3) = ( -1.000000  1.000000 -1.000000 )  


     PseudoPot. # 1 for Sn read from file:
     ./sn_pbe_v1.4.uspp.F.UPF
     MD5 check sum: 469debedee59599fedebd795477fea03
     Pseudo is Ultrasoft + core correction, Zval = 14.0
     Generated by new atomic code, or converted to UPF format
     Using radial grid of  891 points,  6 beta functions with: 
                l(1) =   0
                l(2) =   0
                l(3) =   1
                l(4) =   1
                l(5) =   2
                l(6) =   2
     Q(r) pseudized with  8 coefficients,  rinner =    1.350   1.350   1.350
                                                       1.350   1.350

     atomic species   valence    mass     pseudopotential
        Sn            14.00   118.71000     Sn( 1.00)

     24 Sym. Ops. (no inversion) found
          (note: 24 additional sym.ops. were found but ignored
           their fractional translations are incommensurate with FFT grid)


   Cartesian axes

     site n.     atom                  positions (alat units)
         1           Sn  tau(   1) = (   0.0000000   0.0000000   0.0000000  )
         2           Sn  tau(   2) = (   0.2500000   0.2500000   0.2500000  )

     number of k points=   408  Marzari-Vanderbilt smearing, width (Ry)=  0.0200

     Number of k-points >= 100: set verbosity='high' to print them.

     Dense  grid:     2109 G-vectors     FFT dimensions: (  18,  18,  18)

     Largest allocated arrays     est. size (Mb)     dimensions
        Kohn-Sham Wavefunctions         0.01 Mb     (      21,   18)
        NL pseudopotentials             0.01 Mb     (      21,   36)
        Each V/rho on FFT grid          0.01 Mb     (     648)
        Each G-vector array             0.00 Mb     (     133)
        G-vector shells                 0.00 Mb     (      47)
     Largest temporary arrays     est. size (Mb)     dimensions
        Auxiliary wavefunctions         0.02 Mb     (      21,   72)
        Each subspace H/S matrix        0.02 Mb     (      36,   36)
        Each <psi_i|beta_j> matrix      0.01 Mb     (      36,   18)
        Arrays for rho mixing           0.08 Mb     (     648,    8)

     Check: negative/imaginary core charge=   -0.001848    0.000000

     Initial potential from superposition of free atoms
     Check: negative starting charge=   -0.078683

     starting charge   25.99991, renormalised to   28.00000

     negative rho (up, down):  8.474E-02 0.000E+00
     Starting wfc are   18 randomized atomic wfcs

     total cpu time spent up to now is        1.3 secs

     per-process dynamical memory:     8.9 Mb

     Self-consistent Calculation

     iteration #  1     ecut=    10.00 Ry     beta=0.70
     Davidson diagonalization with overlap
     ethr =  1.00E-02,  avg # of iterations =  3.7

     negative rho (up, down):  5.329E-04 0.000E+00

     total cpu time spent up to now is        2.5 secs

     total energy              =    -312.19278542 Ry
     Harris-Foulkes estimate   =    -317.34502612 Ry
     estimated scf accuracy    <       5.98975542 Ry

     iteration #  2     ecut=    10.00 Ry     beta=0.70
     Davidson diagonalization with overlap
     ethr =  1.00E-02,  avg # of iterations =  2.2

     negative rho (up, down):  7.100E-03 0.000E+00

     total cpu time spent up to now is        3.1 secs

     total energy              =    -314.36572497 Ry
     Harris-Foulkes estimate   =    -314.84592517 Ry
     estimated scf accuracy    <       0.65518779 Ry

     iteration #  3     ecut=    10.00 Ry     beta=0.70
     Davidson diagonalization with overlap
     ethr =  2.34E-03,  avg # of iterations =  2.0

     negative rho (up, down):  1.137E-02 0.000E+00

     total cpu time spent up to now is        3.8 secs

     total energy              =    -314.50149218 Ry
     Harris-Foulkes estimate   =    -314.50346534 Ry
     estimated scf accuracy    <       0.00224976 Ry

     iteration #  4     ecut=    10.00 Ry     beta=0.70
     Davidson diagonalization with overlap
     ethr =  8.03E-06,  avg # of iterations =  3.7

     negative rho (up, down):  1.149E-02 0.000E+00

     total cpu time spent up to now is        4.7 secs

     total energy              =    -314.50244179 Ry
     Harris-Foulkes estimate   =    -314.50251465 Ry
     estimated scf accuracy    <       0.00005536 Ry

     iteration #  5     ecut=    10.00 Ry     beta=0.70
     Davidson diagonalization with overlap
     ethr =  1.98E-07,  avg # of iterations =  2.0

     negative rho (up, down):  1.180E-02 0.000E+00

     total cpu time spent up to now is        4.9 secs

     total energy              =    -314.50243135 Ry
     Harris-Foulkes estimate   =    -314.50245432 Ry
     estimated scf accuracy    <       0.00000132 Ry

     iteration #  6     ecut=    10.00 Ry     beta=0.70
     Davidson diagonalization with overlap
     ethr =  4.72E-09,  avg # of iterations =  2.0

     negative rho (up, down):  1.181E-02 0.000E+00

     total cpu time spent up to now is        5.2 secs

     total energy              =    -314.50243152 Ry
     Harris-Foulkes estimate   =    -314.50243158 Ry
     estimated scf accuracy    <       0.00000007 Ry

     iteration #  7     ecut=    10.00 Ry     beta=0.70
     Davidson diagonalization with overlap
     ethr =  2.38E-10,  avg # of iterations =  2.0

     negative rho (up, down):  1.180E-02 0.000E+00

     total cpu time spent up to now is        5.4 secs

     End of self-consistent calculation

     Number of k-points >= 100: set verbosity='high' to print the bands.

     the Fermi energy is     6.5975 ev

!    total energy              =    -314.50243201 Ry
     Harris-Foulkes estimate   =    -314.50243153 Ry
     estimated scf accuracy    <          2.3E-09 Ry

     The total energy is the sum of the following terms:

     one-electron contribution =    -150.78955822 Ry
     hartree contribution      =      88.82315332 Ry
     xc contribution           =     -84.65295804 Ry
     ewald contribution        =    -167.88333747 Ry
     smearing contrib. (-TS)   =       0.00026839 Ry

     convergence has been achieved in   7 iterations

     negative rho (up, down):  1.180E-02 0.000E+00

     Forces acting on atoms (Ry/au):

     atom    1 type  1   force =     0.00000000    0.00000000    0.00000000
     atom    2 type  1   force =     0.00000000    0.00000000    0.00000000

     Total force =     0.000000     Total SCF correction =     0.000000


     entering subroutine stress ...


     negative rho (up, down):  1.180E-02 0.000E+00
          total   stress  (Ry/bohr**3)                   (kbar)     P=-6412.21
  -0.04358936   0.00000000   0.00000000      -6412.21      0.00      0.00
  -0.00000000  -0.04358936  -0.00000000         -0.00  -6412.21     -0.00
   0.00000000  -0.00000000  -0.04358936          0.00     -0.00  -6412.21


     Writing output data file sn.alpha.save
 
     init_run     :      0.22s CPU      0.26s WALL (       1 calls)
     electrons    :      4.05s CPU      4.15s WALL (       1 calls)
     forces       :      0.01s CPU      0.01s WALL (       1 calls)
     stress       :      0.02s CPU      0.02s WALL (       1 calls)

     Called by init_run:
     wfcinit      :      0.20s CPU      0.20s WALL (       1 calls)
     potinit      :      0.00s CPU      0.02s WALL (       1 calls)

     Called by electrons:
     c_bands      :      3.78s CPU      3.83s WALL (       7 calls)
     sum_band     :      0.23s CPU      0.24s WALL (       7 calls)
     v_of_rho     :      0.01s CPU      0.01s WALL (       8 calls)
     newd         :      0.00s CPU      0.00s WALL (       8 calls)
     mix_rho      :      0.00s CPU      0.00s WALL (       7 calls)

     Called by c_bands:
     init_us_2    :      0.00s CPU      0.00s WALL (     289 calls)
     cegterg      :      0.97s CPU      0.99s WALL (     119 calls)

     Called by sum_band:
     sum_band:bec :      0.00s CPU      0.00s WALL (     119 calls)
     addusdens    :      0.00s CPU      0.00s WALL (       7 calls)

     Called by *egterg:
     h_psi        :      0.50s CPU      0.48s WALL (     443 calls)
     s_psi        :      0.01s CPU      0.01s WALL (     443 calls)
     g_psi        :      0.00s CPU      0.00s WALL (     307 calls)
     cdiaghg      :      0.59s CPU      0.62s WALL (     426 calls)

     Called by h_psi:
     add_vuspsi   :      0.01s CPU      0.01s WALL (     443 calls)

     General routines
     calbec       :      0.02s CPU      0.03s WALL (     647 calls)
     fft          :      0.01s CPU      0.01s WALL (     128 calls)
     fftw         :      0.48s CPU      0.46s WALL (   13892 calls)
     davcio       :      0.00s CPU      0.08s WALL (      17 calls)
 
     Parallel routines
     fft_scatter  :      0.34s CPU      0.35s WALL (   14020 calls)
 
     PWSCF        :     5.94s CPU        50.28s WALL

 
   This run was terminated on:  16:22:32   9Apr2018            

=------------------------------------------------------------------------------=
   JOB DONE.
=------------------------------------------------------------------------------=
Application 30463022 resources: utime ~19222s, stime ~62s, Rss ~21028, inblocks ~3609477, outblocks ~2865936
