
     Program PWSCF v.5.4.0 starts on  9Apr2018 at 16:39:23 

     This program is part of the open-source Quantum ESPRESSO suite
     for quantum simulation of materials; please cite
         "P. Giannozzi et al., J. Phys.:Condens. Matter 21 395502 (2009);
          URL http://www.quantum-espresso.org", 
     in publications or presentations arising from this work. More details at
     http://www.quantum-espresso.org/quote

     Parallel version (MPI & OpenMP), running on     384 processor cores
     Number of MPI processes:               384
     Threads/MPI process:                     1
     K-points division:     npool     =      24
     R & G space division:  proc/nbgrp/npool/nimage =      16
     Waiting for input...
     Reading input from standard input
     Message from routine read_cards :
     DEPRECATED: no units specified in ATOMIC_POSITIONS card
     Message from routine read_cards :
     ATOMIC_POSITIONS: units set to alat

     Current dimensions of program PWSCF are:
     Max number of different atomic species (ntypx) = 10
     Max number of k-points (npk) =  40000
     Max angular momentum in pseudopotentials (lmaxx) =  3

     Subspace diagonalization in iterative solution of the eigenvalue problem:
     one sub-group per band group will be used
     scalapack distributed-memory algorithm (size of sub-group:  2*  2 procs)

 
     Parallelization info
     --------------------
     sticks:   dense  smooth     PW     G-vecs:    dense   smooth      PW
     Min         121     121     36                 3567     3567     573
     Max         122     122     37                 3573     3573     575
     Sum        1945    1945    583                57121    57121    9185
 


     bravais-lattice index     =            2
     lattice parameter (alat)  =      12.5779  a.u.
     unit-cell volume          =     497.4707 (a.u.)^3
     number of atoms/cell      =            2
     number of atomic types    =            1
     number of electrons       =        28.00
     number of Kohn-Sham states=           18
     kinetic-energy cutoff     =      90.0000  Ry
     charge density cutoff     =     360.0000  Ry
     convergence threshold     =      1.0E-08
     mixing beta               =       0.7000
     number of iterations used =            8  plain     mixing
     Exchange-correlation      =  SLA  PW   PBX  PBC ( 1  4  3  4 0 0)

     celldm(1)=  12.577930  celldm(2)=   0.000000  celldm(3)=   0.000000
     celldm(4)=   0.000000  celldm(5)=   0.000000  celldm(6)=   0.000000

     crystal axes: (cart. coord. in units of alat)
               a(1) = (  -0.500000   0.000000   0.500000 )  
               a(2) = (   0.000000   0.500000   0.500000 )  
               a(3) = (  -0.500000   0.500000   0.000000 )  

     reciprocal axes: (cart. coord. in units 2 pi/alat)
               b(1) = ( -1.000000 -1.000000  1.000000 )  
               b(2) = (  1.000000  1.000000  1.000000 )  
               b(3) = ( -1.000000  1.000000 -1.000000 )  


     PseudoPot. # 1 for Sn read from file:
     ./sn_pbe_v1.4.uspp.F.UPF
     MD5 check sum: 469debedee59599fedebd795477fea03
     Pseudo is Ultrasoft + core correction, Zval = 14.0
     Generated by new atomic code, or converted to UPF format
     Using radial grid of  891 points,  6 beta functions with: 
                l(1) =   0
                l(2) =   0
                l(3) =   1
                l(4) =   1
                l(5) =   2
                l(6) =   2
     Q(r) pseudized with  8 coefficients,  rinner =    1.350   1.350   1.350
                                                       1.350   1.350

     atomic species   valence    mass     pseudopotential
        Sn            14.00   118.71000     Sn( 1.00)

     24 Sym. Ops. (no inversion) found
          (note: 24 additional sym.ops. were found but ignored
           their fractional translations are incommensurate with FFT grid)


   Cartesian axes

     site n.     atom                  positions (alat units)
         1           Sn  tau(   1) = (   0.0000000   0.0000000   0.0000000  )
         2           Sn  tau(   2) = (   0.2500000   0.2500000   0.2500000  )

     number of k points=   408  Marzari-Vanderbilt smearing, width (Ry)=  0.0200

     Number of k-points >= 100: set verbosity='high' to print them.

     Dense  grid:    57121 G-vectors     FFT dimensions: (  54,  54,  54)

     Largest allocated arrays     est. size (Mb)     dimensions
        Kohn-Sham Wavefunctions         0.12 Mb     (     453,   18)
        NL pseudopotentials             0.25 Mb     (     453,   36)
        Each V/rho on FFT grid          0.18 Mb     (   11664)
        Each G-vector array             0.03 Mb     (    3573)
        G-vector shells                 0.00 Mb     (     462)
     Largest temporary arrays     est. size (Mb)     dimensions
        Auxiliary wavefunctions         0.50 Mb     (     453,   72)
        Each subspace H/S matrix        0.02 Mb     (      36,   36)
        Each <psi_i|beta_j> matrix      0.01 Mb     (      36,   18)
        Arrays for rho mixing           1.42 Mb     (   11664,    8)

     Check: negative/imaginary core charge=   -0.000001    0.000000

     Initial potential from superposition of free atoms

     starting charge   25.99991, renormalised to   28.00000
     Starting wfc are   18 randomized atomic wfcs

     total cpu time spent up to now is        0.7 secs

     per-process dynamical memory:    15.3 Mb

     Self-consistent Calculation

     iteration #  1     ecut=    90.00 Ry     beta=0.70
     Davidson diagonalization with overlap
     ethr =  1.00E-02,  avg # of iterations =  3.6

     total cpu time spent up to now is        2.9 secs

     total energy              =    -317.47851352 Ry
     Harris-Foulkes estimate   =    -319.56525998 Ry
     estimated scf accuracy    <       2.54302114 Ry

     iteration #  2     ecut=    90.00 Ry     beta=0.70
     Davidson diagonalization with overlap
     ethr =  9.08E-03,  avg # of iterations =  3.0

     total cpu time spent up to now is        4.6 secs

     total energy              =    -318.40363586 Ry
     Harris-Foulkes estimate   =    -318.73448281 Ry
     estimated scf accuracy    <       0.49387580 Ry

     iteration #  3     ecut=    90.00 Ry     beta=0.70
     Davidson diagonalization with overlap
     ethr =  1.76E-03,  avg # of iterations =  2.0

     total cpu time spent up to now is        5.8 secs

     total energy              =    -318.50164679 Ry
     Harris-Foulkes estimate   =    -318.50309473 Ry
     estimated scf accuracy    <       0.00299995 Ry

     iteration #  4     ecut=    90.00 Ry     beta=0.70
     Davidson diagonalization with overlap
     ethr =  1.07E-05,  avg # of iterations =  3.2

     total cpu time spent up to now is        6.8 secs

     total energy              =    -318.50230298 Ry
     Harris-Foulkes estimate   =    -318.50240904 Ry
     estimated scf accuracy    <       0.00016184 Ry

     iteration #  5     ecut=    90.00 Ry     beta=0.70
     Davidson diagonalization with overlap
     ethr =  5.78E-07,  avg # of iterations =  2.0

     total cpu time spent up to now is        7.9 secs

     total energy              =    -318.50234584 Ry
     Harris-Foulkes estimate   =    -318.50234658 Ry
     estimated scf accuracy    <       0.00000158 Ry

     iteration #  6     ecut=    90.00 Ry     beta=0.70
     Davidson diagonalization with overlap
     ethr =  5.64E-09,  avg # of iterations =  3.0

     total cpu time spent up to now is        9.3 secs

     End of self-consistent calculation

     Number of k-points >= 100: set verbosity='high' to print the bands.

     the Fermi energy is     6.8979 ev

!    total energy              =    -318.50234636 Ry
     Harris-Foulkes estimate   =    -318.50234635 Ry
     estimated scf accuracy    <          8.8E-09 Ry

     The total energy is the sum of the following terms:

     one-electron contribution =    -162.28718135 Ry
     hartree contribution      =      97.62741669 Ry
     xc contribution           =     -85.95952663 Ry
     ewald contribution        =    -167.88333747 Ry
     smearing contrib. (-TS)   =       0.00028240 Ry

     convergence has been achieved in   6 iterations

     Forces acting on atoms (Ry/au):

     atom    1 type  1   force =     0.00000000    0.00000000   -0.00000000
     atom    2 type  1   force =    -0.00000000   -0.00000000    0.00000000

     Total force =     0.000000     Total SCF correction =     0.000000


     entering subroutine stress ...

          total   stress  (Ry/bohr**3)                   (kbar)     P=   -1.17
  -0.00000799  -0.00000000  -0.00000000         -1.17     -0.00     -0.00
  -0.00000000  -0.00000799   0.00000000         -0.00     -1.17      0.00
   0.00000000   0.00000000  -0.00000799          0.00      0.00     -1.17


     Writing output data file sn.alpha.save
 
     init_run     :      0.25s CPU      0.28s WALL (       1 calls)
     electrons    :      8.50s CPU      8.63s WALL (       1 calls)
     forces       :      0.06s CPU      0.07s WALL (       1 calls)
     stress       :      0.18s CPU      0.18s WALL (       1 calls)

     Called by init_run:
     wfcinit      :      0.13s CPU      0.15s WALL (       1 calls)
     potinit      :      0.01s CPU      0.02s WALL (       1 calls)

     Called by electrons:
     c_bands      :      7.47s CPU      7.55s WALL (       6 calls)
     sum_band     :      0.85s CPU      0.86s WALL (       6 calls)
     v_of_rho     :      0.04s CPU      0.05s WALL (       7 calls)
     newd         :      0.08s CPU      0.09s WALL (       7 calls)
     mix_rho      :      0.00s CPU      0.00s WALL (       6 calls)

     Called by c_bands:
     init_us_2    :      0.03s CPU      0.03s WALL (     255 calls)
     cegterg      :      2.99s CPU      3.04s WALL (     102 calls)

     Called by sum_band:
     sum_band:bec :      0.00s CPU      0.00s WALL (     102 calls)
     addusdens    :      0.11s CPU      0.12s WALL (       6 calls)

     Called by *egterg:
     h_psi        :      1.93s CPU      2.05s WALL (     415 calls)
     s_psi        :      0.07s CPU      0.05s WALL (     415 calls)
     g_psi        :      0.02s CPU      0.01s WALL (     296 calls)
     cdiaghg      :      0.71s CPU      0.68s WALL (     398 calls)

     Called by h_psi:
     add_vuspsi   :      0.04s CPU      0.06s WALL (     415 calls)

     General routines
     calbec       :      0.14s CPU      0.12s WALL (     602 calls)
     fft          :      0.03s CPU      0.03s WALL (     115 calls)
     fftw         :      1.90s CPU      2.01s WALL (   13410 calls)
     davcio       :      0.00s CPU      0.22s WALL (      17 calls)
 
     Parallel routines
     fft_scatter  :      0.57s CPU      0.59s WALL (   13525 calls)
 
     PWSCF        :    10.86s CPU        54.29s WALL

 
   This run was terminated on:  16:40:18   9Apr2018            

=------------------------------------------------------------------------------=
   JOB DONE.
=------------------------------------------------------------------------------=
Application 30463466 resources: utime ~20734s, stime ~79s, Rss ~39184, inblocks ~3633125, outblocks ~4476406
