
     Program PWSCF v.5.4.0 starts on  6Apr2018 at 23:57:16 

     This program is part of the open-source Quantum ESPRESSO suite
     for quantum simulation of materials; please cite
         "P. Giannozzi et al., J. Phys.:Condens. Matter 21 395502 (2009);
          URL http://www.quantum-espresso.org", 
     in publications or presentations arising from this work. More details at
     http://www.quantum-espresso.org/quote

     Parallel version (MPI & OpenMP), running on     192 processor cores
     Number of MPI processes:               192
     Threads/MPI process:                     1
     K-points division:     npool     =      24
     R & G space division:  proc/nbgrp/npool/nimage =       8
     Waiting for input...
     Reading input from standard input
     Message from routine read_cards :
     DEPRECATED: no units specified in ATOMIC_POSITIONS card
     Message from routine read_cards :
     ATOMIC_POSITIONS: units set to alat

     Current dimensions of program PWSCF are:
     Max number of different atomic species (ntypx) = 10
     Max number of k-points (npk) =  40000
     Max angular momentum in pseudopotentials (lmaxx) =  3

     Subspace diagonalization in iterative solution of the eigenvalue problem:
     one sub-group per band group will be used
     scalapack distributed-memory algorithm (size of sub-group:  2*  2 procs)

 
     Parallelization info
     --------------------
     sticks:   dense  smooth     PW     G-vecs:    dense   smooth      PW
     Min          38      38     13                  440      440      92
     Max          40      40     14                  441      441      95
     Sum         313     313    109                 3527     3527     749
 


     bravais-lattice index     =            2
     lattice parameter (alat)  =      12.5779  a.u.
     unit-cell volume          =     497.4707 (a.u.)^3
     number of atoms/cell      =            2
     number of atomic types    =            1
     number of electrons       =        28.00
     number of Kohn-Sham states=           14
     kinetic-energy cutoff     =      14.0000  Ry
     charge density cutoff     =      56.0000  Ry
     convergence threshold     =      1.0E-08
     mixing beta               =       0.7000
     number of iterations used =            8  plain     mixing
     Exchange-correlation      =  SLA  PW   PBX  PBC ( 1  4  3  4 0 0)

     celldm(1)=  12.577930  celldm(2)=   0.000000  celldm(3)=   0.000000
     celldm(4)=   0.000000  celldm(5)=   0.000000  celldm(6)=   0.000000

     crystal axes: (cart. coord. in units of alat)
               a(1) = (  -0.500000   0.000000   0.500000 )  
               a(2) = (   0.000000   0.500000   0.500000 )  
               a(3) = (  -0.500000   0.500000   0.000000 )  

     reciprocal axes: (cart. coord. in units 2 pi/alat)
               b(1) = ( -1.000000 -1.000000  1.000000 )  
               b(2) = (  1.000000  1.000000  1.000000 )  
               b(3) = ( -1.000000  1.000000 -1.000000 )  


     PseudoPot. # 1 for Sn read from file:
     ./sn_pbe_v1.4.uspp.F.UPF
     MD5 check sum: 469debedee59599fedebd795477fea03
     Pseudo is Ultrasoft + core correction, Zval = 14.0
     Generated by new atomic code, or converted to UPF format
     Using radial grid of  891 points,  6 beta functions with: 
                l(1) =   0
                l(2) =   0
                l(3) =   1
                l(4) =   1
                l(5) =   2
                l(6) =   2
     Q(r) pseudized with  8 coefficients,  rinner =    1.350   1.350   1.350
                                                       1.350   1.350

     atomic species   valence    mass     pseudopotential
        Sn            14.00   118.71000     Sn( 1.00)

     48 Sym. Ops., with inversion, found (24 have fractional translation)



   Cartesian axes

     site n.     atom                  positions (alat units)
         1           Sn  tau(   1) = (   0.0000000   0.0000000   0.0000000  )
         2           Sn  tau(   2) = (   0.2500000   0.2500000   0.2500000  )

     number of k points=   408

     Number of k-points >= 100: set verbosity='high' to print them.

     Dense  grid:     3527 G-vectors     FFT dimensions: (  24,  24,  24)

     Largest allocated arrays     est. size (Mb)     dimensions
        Kohn-Sham Wavefunctions         0.01 Mb     (      60,   14)
        NL pseudopotentials             0.03 Mb     (      60,   36)
        Each V/rho on FFT grid          0.03 Mb     (    1728)
        Each G-vector array             0.00 Mb     (     441)
        G-vector shells                 0.00 Mb     (      74)
     Largest temporary arrays     est. size (Mb)     dimensions
        Auxiliary wavefunctions         0.05 Mb     (      60,   56)
        Each subspace H/S matrix        0.01 Mb     (      28,   28)
        Each <psi_i|beta_j> matrix      0.01 Mb     (      36,   14)
        Arrays for rho mixing           0.21 Mb     (    1728,    8)

     Check: negative/imaginary core charge=   -0.002056    0.000000

     Initial potential from superposition of free atoms
     Check: negative starting charge=   -0.012042

     starting charge   25.99991, renormalised to   28.00000

     negative rho (up, down):  1.297E-02 0.000E+00
     Starting wfc are   18 randomized atomic wfcs

     total cpu time spent up to now is        0.2 secs

     per-process dynamical memory:     9.2 Mb

     Self-consistent Calculation

     iteration #  1     ecut=    14.00 Ry     beta=0.70
     Davidson diagonalization with overlap
     ethr =  1.00E-02,  avg # of iterations =  2.3

     negative rho (up, down):  5.456E-04 0.000E+00

     total cpu time spent up to now is        0.4 secs

     total energy              =    -317.16835275 Ry
     Harris-Foulkes estimate   =    -319.59499119 Ry
     estimated scf accuracy    <       2.82307672 Ry

     iteration #  2     ecut=    14.00 Ry     beta=0.70
     Davidson diagonalization with overlap
     ethr =  1.00E-02,  avg # of iterations =  2.3

     negative rho (up, down):  1.150E-03 0.000E+00

     total cpu time spent up to now is        0.6 secs

     total energy              =    -318.26550559 Ry
     Harris-Foulkes estimate   =    -318.64433111 Ry
     estimated scf accuracy    <       0.55462157 Ry

     iteration #  3     ecut=    14.00 Ry     beta=0.70
     Davidson diagonalization with overlap
     ethr =  1.98E-03,  avg # of iterations =  2.0

     negative rho (up, down):  1.447E-03 0.000E+00

     total cpu time spent up to now is        0.7 secs

     total energy              =    -318.37133779 Ry
     Harris-Foulkes estimate   =    -318.37500155 Ry
     estimated scf accuracy    <       0.00576375 Ry

     iteration #  4     ecut=    14.00 Ry     beta=0.70
     Davidson diagonalization with overlap
     ethr =  2.06E-05,  avg # of iterations =  3.2

     negative rho (up, down):  1.368E-03 0.000E+00

     total cpu time spent up to now is        1.0 secs

     total energy              =    -318.37340564 Ry
     Harris-Foulkes estimate   =    -318.37367042 Ry
     estimated scf accuracy    <       0.00043451 Ry

     iteration #  5     ecut=    14.00 Ry     beta=0.70
     Davidson diagonalization with overlap
     ethr =  1.55E-06,  avg # of iterations =  2.1

     negative rho (up, down):  1.344E-03 0.000E+00

     total cpu time spent up to now is        1.1 secs

     total energy              =    -318.37347032 Ry
     Harris-Foulkes estimate   =    -318.37348030 Ry
     estimated scf accuracy    <       0.00001888 Ry

     iteration #  6     ecut=    14.00 Ry     beta=0.70
     Davidson diagonalization with overlap
     ethr =  6.74E-08,  avg # of iterations =  3.1

     negative rho (up, down):  1.343E-03 0.000E+00

     total cpu time spent up to now is        1.3 secs

     total energy              =    -318.37347896 Ry
     Harris-Foulkes estimate   =    -318.37347941 Ry
     estimated scf accuracy    <       0.00000070 Ry

     iteration #  7     ecut=    14.00 Ry     beta=0.70
     Davidson diagonalization with overlap
     ethr =  2.48E-09,  avg # of iterations =  2.1

     negative rho (up, down):  1.344E-03 0.000E+00

     total cpu time spent up to now is        1.5 secs

     total energy              =    -318.37347925 Ry
     Harris-Foulkes estimate   =    -318.37347912 Ry
     estimated scf accuracy    <       0.00000001 Ry

     iteration #  8     ecut=    14.00 Ry     beta=0.70
     Davidson diagonalization with overlap
     ethr =  4.90E-11,  avg # of iterations =  4.0

     negative rho (up, down):  1.343E-03 0.000E+00

     total cpu time spent up to now is        1.7 secs

     End of self-consistent calculation

     Number of k-points >= 100: set verbosity='high' to print the bands.

     highest occupied level (ev):     6.9474

!    total energy              =    -318.37347927 Ry
     Harris-Foulkes estimate   =    -318.37347927 Ry
     estimated scf accuracy    <          2.0E-09 Ry

     The total energy is the sum of the following terms:

     one-electron contribution =    -160.86863272 Ry
     hartree contribution      =      96.81569599 Ry
     xc contribution           =     -86.43720436 Ry
     ewald contribution        =    -167.88333817 Ry

     convergence has been achieved in   8 iterations

     negative rho (up, down):  1.343E-03 0.000E+00

     Forces acting on atoms (Ry/au):

     atom    1 type  1   force =    -0.00000000   -0.00000000    0.00000000
     atom    2 type  1   force =     0.00000000    0.00000000    0.00000000

     Total force =     0.000000     Total SCF correction =     0.000000


     entering subroutine stress ...


     negative rho (up, down):  1.343E-03 0.000E+00
          total   stress  (Ry/bohr**3)                   (kbar)     P=  -87.47
  -0.00059462   0.00000000   0.00000000        -87.47      0.00      0.00
   0.00000000  -0.00059462  -0.00000000          0.00    -87.47     -0.00
   0.00000000  -0.00000000  -0.00059462          0.00     -0.00    -87.47


     Writing output data file sn.alpha.save
 
     init_run     :      0.08s CPU      0.09s WALL (       1 calls)
     electrons    :      1.42s CPU      1.55s WALL (       1 calls)
     forces       :      0.01s CPU      0.01s WALL (       1 calls)
     stress       :      0.02s CPU      0.03s WALL (       1 calls)

     Called by init_run:
     wfcinit      :      0.03s CPU      0.04s WALL (       1 calls)
     potinit      :      0.00s CPU      0.00s WALL (       1 calls)

     Called by electrons:
     c_bands      :      1.30s CPU      1.36s WALL (       8 calls)
     sum_band     :      0.08s CPU      0.09s WALL (       8 calls)
     v_of_rho     :      0.02s CPU      0.01s WALL (       9 calls)
     newd         :      0.01s CPU      0.01s WALL (       9 calls)
     mix_rho      :      0.00s CPU      0.00s WALL (       8 calls)

     Called by c_bands:
     init_us_2    :      0.00s CPU      0.01s WALL (     323 calls)
     cegterg      :      1.17s CPU      1.20s WALL (     136 calls)

     Called by sum_band:
     sum_band:bec :      0.00s CPU      0.00s WALL (     136 calls)
     addusdens    :      0.01s CPU      0.01s WALL (       8 calls)

     Called by *egterg:
     h_psi        :      0.37s CPU      0.40s WALL (     592 calls)
     s_psi        :      0.02s CPU      0.01s WALL (     592 calls)
     g_psi        :      0.00s CPU      0.00s WALL (     439 calls)
     cdiaghg      :      0.71s CPU      0.70s WALL (     575 calls)

     Called by h_psi:
     add_vuspsi   :      0.01s CPU      0.01s WALL (     592 calls)

     General routines
     calbec       :      0.04s CPU      0.03s WALL (     813 calls)
     fft          :      0.00s CPU      0.01s WALL (     141 calls)
     fftw         :      0.37s CPU      0.38s WALL (   13972 calls)
     davcio       :      0.00s CPU      0.00s WALL (      17 calls)
 
     Parallel routines
     fft_scatter  :      0.18s CPU      0.18s WALL (   14113 calls)
 
     PWSCF        :     2.12s CPU        18.42s WALL

 
   This run was terminated on:  23:57:34   6Apr2018            

=------------------------------------------------------------------------------=
   JOB DONE.
=------------------------------------------------------------------------------=
Application 30443815 resources: utime ~3526s, stime ~30s, Rss ~22128, inblocks ~1800995, outblocks ~1483627
