
     Program PWSCF v.5.4.0 starts on  9Apr2018 at 16:22:42 

     This program is part of the open-source Quantum ESPRESSO suite
     for quantum simulation of materials; please cite
         "P. Giannozzi et al., J. Phys.:Condens. Matter 21 395502 (2009);
          URL http://www.quantum-espresso.org", 
     in publications or presentations arising from this work. More details at
     http://www.quantum-espresso.org/quote

     Parallel version (MPI & OpenMP), running on     384 processor cores
     Number of MPI processes:               384
     Threads/MPI process:                     1
     K-points division:     npool     =      24
     R & G space division:  proc/nbgrp/npool/nimage =      16
     Waiting for input...
     Reading input from standard input
     Message from routine read_cards :
     DEPRECATED: no units specified in ATOMIC_POSITIONS card
     Message from routine read_cards :
     ATOMIC_POSITIONS: units set to alat

     Current dimensions of program PWSCF are:
     Max number of different atomic species (ntypx) = 10
     Max number of k-points (npk) =  40000
     Max angular momentum in pseudopotentials (lmaxx) =  3

     Subspace diagonalization in iterative solution of the eigenvalue problem:
     one sub-group per band group will be used
     scalapack distributed-memory algorithm (size of sub-group:  2*  2 procs)

 
     Parallelization info
     --------------------
     sticks:   dense  smooth     PW     G-vecs:    dense   smooth      PW
     Min          19      19      6                  220      220      45
     Max          21      21      7                  221      221      48
     Sum         313     313    109                 3527     3527     749
 


     bravais-lattice index     =            2
     lattice parameter (alat)  =      12.5779  a.u.
     unit-cell volume          =     497.4707 (a.u.)^3
     number of atoms/cell      =            2
     number of atomic types    =            1
     number of electrons       =        28.00
     number of Kohn-Sham states=           18
     kinetic-energy cutoff     =      14.0000  Ry
     charge density cutoff     =      56.0000  Ry
     convergence threshold     =      1.0E-08
     mixing beta               =       0.7000
     number of iterations used =            8  plain     mixing
     Exchange-correlation      =  SLA  PW   PBX  PBC ( 1  4  3  4 0 0)

     celldm(1)=  12.577930  celldm(2)=   0.000000  celldm(3)=   0.000000
     celldm(4)=   0.000000  celldm(5)=   0.000000  celldm(6)=   0.000000

     crystal axes: (cart. coord. in units of alat)
               a(1) = (  -0.500000   0.000000   0.500000 )  
               a(2) = (   0.000000   0.500000   0.500000 )  
               a(3) = (  -0.500000   0.500000   0.000000 )  

     reciprocal axes: (cart. coord. in units 2 pi/alat)
               b(1) = ( -1.000000 -1.000000  1.000000 )  
               b(2) = (  1.000000  1.000000  1.000000 )  
               b(3) = ( -1.000000  1.000000 -1.000000 )  


     PseudoPot. # 1 for Sn read from file:
     ./sn_pbe_v1.4.uspp.F.UPF
     MD5 check sum: 469debedee59599fedebd795477fea03
     Pseudo is Ultrasoft + core correction, Zval = 14.0
     Generated by new atomic code, or converted to UPF format
     Using radial grid of  891 points,  6 beta functions with: 
                l(1) =   0
                l(2) =   0
                l(3) =   1
                l(4) =   1
                l(5) =   2
                l(6) =   2
     Q(r) pseudized with  8 coefficients,  rinner =    1.350   1.350   1.350
                                                       1.350   1.350

     atomic species   valence    mass     pseudopotential
        Sn            14.00   118.71000     Sn( 1.00)

     48 Sym. Ops., with inversion, found (24 have fractional translation)



   Cartesian axes

     site n.     atom                  positions (alat units)
         1           Sn  tau(   1) = (   0.0000000   0.0000000   0.0000000  )
         2           Sn  tau(   2) = (   0.2500000   0.2500000   0.2500000  )

     number of k points=   408  Marzari-Vanderbilt smearing, width (Ry)=  0.0200

     Number of k-points >= 100: set verbosity='high' to print them.

     Dense  grid:     3527 G-vectors     FFT dimensions: (  24,  24,  24)

     Largest allocated arrays     est. size (Mb)     dimensions
        Kohn-Sham Wavefunctions         0.01 Mb     (      30,   18)
        NL pseudopotentials             0.02 Mb     (      30,   36)
        Each V/rho on FFT grid          0.02 Mb     (    1152)
        Each G-vector array             0.00 Mb     (     221)
        G-vector shells                 0.00 Mb     (      72)
     Largest temporary arrays     est. size (Mb)     dimensions
        Auxiliary wavefunctions         0.03 Mb     (      30,   72)
        Each subspace H/S matrix        0.02 Mb     (      36,   36)
        Each <psi_i|beta_j> matrix      0.01 Mb     (      36,   18)
        Arrays for rho mixing           0.14 Mb     (    1152,    8)

     Check: negative/imaginary core charge=   -0.002056    0.000000

     Initial potential from superposition of free atoms
     Check: negative starting charge=   -0.012042

     starting charge   25.99991, renormalised to   28.00000

     negative rho (up, down):  1.297E-02 0.000E+00
     Starting wfc are   18 randomized atomic wfcs

     total cpu time spent up to now is        0.5 secs

     per-process dynamical memory:     9.2 Mb

     Self-consistent Calculation

     iteration #  1     ecut=    14.00 Ry     beta=0.70
     Davidson diagonalization with overlap
     ethr =  1.00E-02,  avg # of iterations =  3.9

     negative rho (up, down):  3.654E-04 0.000E+00

     total cpu time spent up to now is        1.8 secs

     total energy              =    -317.09934130 Ry
     Harris-Foulkes estimate   =    -319.61294067 Ry
     estimated scf accuracy    <       2.91231441 Ry

     iteration #  2     ecut=    14.00 Ry     beta=0.70
     Davidson diagonalization with overlap
     ethr =  1.00E-02,  avg # of iterations =  2.1

     negative rho (up, down):  6.943E-04 0.000E+00

     total cpu time spent up to now is        3.0 secs

     total energy              =    -318.25955486 Ry
     Harris-Foulkes estimate   =    -318.67972660 Ry
     estimated scf accuracy    <       0.62145207 Ry

     iteration #  3     ecut=    14.00 Ry     beta=0.70
     Davidson diagonalization with overlap
     ethr =  2.22E-03,  avg # of iterations =  2.0

     negative rho (up, down):  1.414E-03 0.000E+00

     total cpu time spent up to now is        4.0 secs

     total energy              =    -318.37163653 Ry
     Harris-Foulkes estimate   =    -318.37677484 Ry
     estimated scf accuracy    <       0.00782098 Ry

     iteration #  4     ecut=    14.00 Ry     beta=0.70
     Davidson diagonalization with overlap
     ethr =  2.79E-05,  avg # of iterations =  3.1

     negative rho (up, down):  1.345E-03 0.000E+00

     total cpu time spent up to now is        5.3 secs

     total energy              =    -318.37363172 Ry
     Harris-Foulkes estimate   =    -318.37395062 Ry
     estimated scf accuracy    <       0.00051488 Ry

     iteration #  5     ecut=    14.00 Ry     beta=0.70
     Davidson diagonalization with overlap
     ethr =  1.84E-06,  avg # of iterations =  2.0

     negative rho (up, down):  1.325E-03 0.000E+00

     total cpu time spent up to now is        6.2 secs

     total energy              =    -318.37370393 Ry
     Harris-Foulkes estimate   =    -318.37371390 Ry
     estimated scf accuracy    <       0.00001820 Ry

     iteration #  6     ecut=    14.00 Ry     beta=0.70
     Davidson diagonalization with overlap
     ethr =  6.50E-08,  avg # of iterations =  2.0

     negative rho (up, down):  1.321E-03 0.000E+00

     total cpu time spent up to now is        7.1 secs

     total energy              =    -318.37371071 Ry
     Harris-Foulkes estimate   =    -318.37371052 Ry
     estimated scf accuracy    <       0.00000008 Ry

     iteration #  7     ecut=    14.00 Ry     beta=0.70
     Davidson diagonalization with overlap
     ethr =  2.98E-10,  avg # of iterations =  2.0

     negative rho (up, down):  1.321E-03 0.000E+00

     total cpu time spent up to now is        7.9 secs

     End of self-consistent calculation

     Number of k-points >= 100: set verbosity='high' to print the bands.

     the Fermi energy is     6.7560 ev

!    total energy              =    -318.37371076 Ry
     Harris-Foulkes estimate   =    -318.37371074 Ry
     estimated scf accuracy    <          9.4E-09 Ry

     The total energy is the sum of the following terms:

     one-electron contribution =    -160.86034108 Ry
     hartree contribution      =      96.80653860 Ry
     xc contribution           =     -86.43679171 Ry
     ewald contribution        =    -167.88333817 Ry
     smearing contrib. (-TS)   =       0.00022160 Ry

     convergence has been achieved in   7 iterations

     negative rho (up, down):  1.321E-03 0.000E+00

     Forces acting on atoms (Ry/au):

     atom    1 type  1   force =     0.00000000    0.00000000   -0.00000000
     atom    2 type  1   force =     0.00000000    0.00000000   -0.00000000

     Total force =     0.000000     Total SCF correction =     0.000000


     entering subroutine stress ...


     negative rho (up, down):  1.321E-03 0.000E+00
          total   stress  (Ry/bohr**3)                   (kbar)     P=  -87.68
  -0.00059606   0.00000000   0.00000000        -87.68      0.00      0.00
   0.00000000  -0.00059606  -0.00000000          0.00    -87.68     -0.00
   0.00000000  -0.00000000  -0.00059606          0.00     -0.00    -87.68


     Writing output data file sn.alpha.save
 
     init_run     :      0.08s CPU      0.09s WALL (       1 calls)
     electrons    :      7.30s CPU      7.48s WALL (       1 calls)
     forces       :      0.02s CPU      0.03s WALL (       1 calls)
     stress       :      0.03s CPU      0.03s WALL (       1 calls)

     Called by init_run:
     wfcinit      :      0.04s CPU      0.04s WALL (       1 calls)
     potinit      :      0.00s CPU      0.01s WALL (       1 calls)

     Called by electrons:
     c_bands      :      6.67s CPU      6.73s WALL (       7 calls)
     sum_band     :      0.58s CPU      0.59s WALL (       7 calls)
     v_of_rho     :      0.01s CPU      0.01s WALL (       8 calls)
     newd         :      0.00s CPU      0.01s WALL (       8 calls)
     mix_rho      :      0.00s CPU      0.00s WALL (       7 calls)

     Called by c_bands:
     init_us_2    :      0.01s CPU      0.00s WALL (     289 calls)
     cegterg      :      1.08s CPU      1.10s WALL (     119 calls)

     Called by sum_band:
     sum_band:bec :      0.00s CPU      0.00s WALL (     119 calls)
     addusdens    :      0.01s CPU      0.01s WALL (       7 calls)

     Called by *egterg:
     h_psi        :      0.38s CPU      0.39s WALL (     438 calls)
     s_psi        :      0.00s CPU      0.01s WALL (     438 calls)
     g_psi        :      0.00s CPU      0.00s WALL (     302 calls)
     cdiaghg      :      0.65s CPU      0.64s WALL (     421 calls)

     Called by h_psi:
     add_vuspsi   :      0.01s CPU      0.01s WALL (     438 calls)

     General routines
     calbec       :      0.04s CPU      0.03s WALL (     642 calls)
     fft          :      0.01s CPU      0.01s WALL (     128 calls)
     fftw         :      0.36s CPU      0.38s WALL (   14986 calls)
     davcio       :      0.00s CPU      0.04s WALL (      17 calls)
 
     Parallel routines
     fft_scatter  :      0.25s CPU      0.23s WALL (   15114 calls)
 
     PWSCF        :     9.45s CPU        28.83s WALL

 
   This run was terminated on:  16:23:11   9Apr2018            

=------------------------------------------------------------------------------=
   JOB DONE.
=------------------------------------------------------------------------------=
Application 30463034 resources: utime ~11035s, stime ~63s, Rss ~21432, inblocks ~3612491, outblocks ~2908919
