
     Program PWSCF v.5.4.0 starts on  9Apr2018 at 16:25:11 

     This program is part of the open-source Quantum ESPRESSO suite
     for quantum simulation of materials; please cite
         "P. Giannozzi et al., J. Phys.:Condens. Matter 21 395502 (2009);
          URL http://www.quantum-espresso.org", 
     in publications or presentations arising from this work. More details at
     http://www.quantum-espresso.org/quote

     Parallel version (MPI & OpenMP), running on     384 processor cores
     Number of MPI processes:               384
     Threads/MPI process:                     1
     K-points division:     npool     =      24
     R & G space division:  proc/nbgrp/npool/nimage =      16
     Waiting for input...
     Reading input from standard input
     Message from routine read_cards :
     DEPRECATED: no units specified in ATOMIC_POSITIONS card
     Message from routine read_cards :
     ATOMIC_POSITIONS: units set to alat

     Current dimensions of program PWSCF are:
     Max number of different atomic species (ntypx) = 10
     Max number of k-points (npk) =  40000
     Max angular momentum in pseudopotentials (lmaxx) =  3

     Subspace diagonalization in iterative solution of the eigenvalue problem:
     one sub-group per band group will be used
     scalapack distributed-memory algorithm (size of sub-group:  2*  2 procs)

 
     Parallelization info
     --------------------
     sticks:   dense  smooth     PW     G-vecs:    dense   smooth      PW
     Min          35      35     11                  554      554     103
     Max          38      38     12                  555      555     106
     Sum         571     571    187                 8873     8873    1687
 


     bravais-lattice index     =            2
     lattice parameter (alat)  =      12.5779  a.u.
     unit-cell volume          =     497.4707 (a.u.)^3
     number of atoms/cell      =            2
     number of atomic types    =            1
     number of electrons       =        28.00
     number of Kohn-Sham states=           18
     kinetic-energy cutoff     =      26.0000  Ry
     charge density cutoff     =     104.0000  Ry
     convergence threshold     =      1.0E-08
     mixing beta               =       0.7000
     number of iterations used =            8  plain     mixing
     Exchange-correlation      =  SLA  PW   PBX  PBC ( 1  4  3  4 0 0)

     celldm(1)=  12.577930  celldm(2)=   0.000000  celldm(3)=   0.000000
     celldm(4)=   0.000000  celldm(5)=   0.000000  celldm(6)=   0.000000

     crystal axes: (cart. coord. in units of alat)
               a(1) = (  -0.500000   0.000000   0.500000 )  
               a(2) = (   0.000000   0.500000   0.500000 )  
               a(3) = (  -0.500000   0.500000   0.000000 )  

     reciprocal axes: (cart. coord. in units 2 pi/alat)
               b(1) = ( -1.000000 -1.000000  1.000000 )  
               b(2) = (  1.000000  1.000000  1.000000 )  
               b(3) = ( -1.000000  1.000000 -1.000000 )  


     PseudoPot. # 1 for Sn read from file:
     ./sn_pbe_v1.4.uspp.F.UPF
     MD5 check sum: 469debedee59599fedebd795477fea03
     Pseudo is Ultrasoft + core correction, Zval = 14.0
     Generated by new atomic code, or converted to UPF format
     Using radial grid of  891 points,  6 beta functions with: 
                l(1) =   0
                l(2) =   0
                l(3) =   1
                l(4) =   1
                l(5) =   2
                l(6) =   2
     Q(r) pseudized with  8 coefficients,  rinner =    1.350   1.350   1.350
                                                       1.350   1.350

     atomic species   valence    mass     pseudopotential
        Sn            14.00   118.71000     Sn( 1.00)

     24 Sym. Ops. (no inversion) found
          (note: 24 additional sym.ops. were found but ignored
           their fractional translations are incommensurate with FFT grid)


   Cartesian axes

     site n.     atom                  positions (alat units)
         1           Sn  tau(   1) = (   0.0000000   0.0000000   0.0000000  )
         2           Sn  tau(   2) = (   0.2500000   0.2500000   0.2500000  )

     number of k points=   408  Marzari-Vanderbilt smearing, width (Ry)=  0.0200

     Number of k-points >= 100: set verbosity='high' to print them.

     Dense  grid:     8873 G-vectors     FFT dimensions: (  30,  30,  30)

     Largest allocated arrays     est. size (Mb)     dimensions
        Kohn-Sham Wavefunctions         0.02 Mb     (      77,   18)
        NL pseudopotentials             0.04 Mb     (      77,   36)
        Each V/rho on FFT grid          0.03 Mb     (    1800)
        Each G-vector array             0.00 Mb     (     555)
        G-vector shells                 0.00 Mb     (     123)
     Largest temporary arrays     est. size (Mb)     dimensions
        Auxiliary wavefunctions         0.08 Mb     (      77,   72)
        Each subspace H/S matrix        0.02 Mb     (      36,   36)
        Each <psi_i|beta_j> matrix      0.01 Mb     (      36,   18)
        Arrays for rho mixing           0.22 Mb     (    1800,    8)

     Check: negative/imaginary core charge=   -0.000173    0.000000

     Initial potential from superposition of free atoms

     starting charge   25.99991, renormalised to   28.00000
     Starting wfc are   18 randomized atomic wfcs

     total cpu time spent up to now is        0.4 secs

     per-process dynamical memory:     9.9 Mb

     Self-consistent Calculation

     iteration #  1     ecut=    26.00 Ry     beta=0.70
     Davidson diagonalization with overlap
     ethr =  1.00E-02,  avg # of iterations =  3.6

     total cpu time spent up to now is        1.0 secs

     total energy              =    -317.29367386 Ry
     Harris-Foulkes estimate   =    -319.40083152 Ry
     estimated scf accuracy    <       2.55686339 Ry

     iteration #  2     ecut=    26.00 Ry     beta=0.70
     Davidson diagonalization with overlap
     ethr =  9.13E-03,  avg # of iterations =  2.9

     total cpu time spent up to now is        1.6 secs

     total energy              =    -318.23496846 Ry
     Harris-Foulkes estimate   =    -318.58402523 Ry
     estimated scf accuracy    <       0.52468183 Ry

     iteration #  3     ecut=    26.00 Ry     beta=0.70
     Davidson diagonalization with overlap
     ethr =  1.87E-03,  avg # of iterations =  2.0

     total cpu time spent up to now is        2.2 secs

     total energy              =    -318.33738215 Ry
     Harris-Foulkes estimate   =    -318.33930153 Ry
     estimated scf accuracy    <       0.00374577 Ry

     iteration #  4     ecut=    26.00 Ry     beta=0.70
     Davidson diagonalization with overlap
     ethr =  1.34E-05,  avg # of iterations =  3.2

     total cpu time spent up to now is        2.8 secs

     total energy              =    -318.33815705 Ry
     Harris-Foulkes estimate   =    -318.33828639 Ry
     estimated scf accuracy    <       0.00020011 Ry

     iteration #  5     ecut=    26.00 Ry     beta=0.70
     Davidson diagonalization with overlap
     ethr =  7.15E-07,  avg # of iterations =  2.0

     total cpu time spent up to now is        3.5 secs

     total energy              =    -318.33820196 Ry
     Harris-Foulkes estimate   =    -318.33820196 Ry
     estimated scf accuracy    <       0.00000025 Ry

     iteration #  6     ecut=    26.00 Ry     beta=0.70
     Davidson diagonalization with overlap
     ethr =  8.92E-10,  avg # of iterations =  3.5

     total cpu time spent up to now is        4.5 secs

     total energy              =    -318.33820218 Ry
     Harris-Foulkes estimate   =    -318.33820220 Ry
     estimated scf accuracy    <       0.00000003 Ry

     iteration #  7     ecut=    26.00 Ry     beta=0.70
     Davidson diagonalization with overlap
     ethr =  1.05E-10,  avg # of iterations =  2.0

     total cpu time spent up to now is        5.3 secs

     End of self-consistent calculation

     Number of k-points >= 100: set verbosity='high' to print the bands.

     the Fermi energy is     6.9109 ev

!    total energy              =    -318.33820219 Ry
     Harris-Foulkes estimate   =    -318.33820219 Ry
     estimated scf accuracy    <          2.6E-10 Ry

     The total energy is the sum of the following terms:

     one-electron contribution =    -162.13010467 Ry
     hartree contribution      =      97.69275395 Ry
     xc contribution           =     -86.01779776 Ry
     ewald contribution        =    -167.88333749 Ry
     smearing contrib. (-TS)   =       0.00028379 Ry

     convergence has been achieved in   7 iterations

     Forces acting on atoms (Ry/au):

     atom    1 type  1   force =     0.00000000    0.00000000    0.00000000
     atom    2 type  1   force =    -0.00000000    0.00000000   -0.00000000

     Total force =     0.000000     Total SCF correction =     0.000000


     entering subroutine stress ...

          total   stress  (Ry/bohr**3)                   (kbar)     P= -133.01
  -0.00090416   0.00000000   0.00000000       -133.01      0.00      0.00
   0.00000000  -0.00090416  -0.00000000          0.00   -133.01     -0.00
   0.00000000  -0.00000000  -0.00090416          0.00     -0.00   -133.01


     Writing output data file sn.alpha.save
 
     init_run     :      0.10s CPU      0.11s WALL (       1 calls)
     electrons    :      4.83s CPU      4.99s WALL (       1 calls)
     forces       :      0.03s CPU      0.03s WALL (       1 calls)
     stress       :      0.04s CPU      0.05s WALL (       1 calls)

     Called by init_run:
     wfcinit      :      0.05s CPU      0.05s WALL (       1 calls)
     potinit      :      0.00s CPU      0.01s WALL (       1 calls)

     Called by electrons:
     c_bands      :      4.38s CPU      4.46s WALL (       7 calls)
     sum_band     :      0.40s CPU      0.41s WALL (       7 calls)
     v_of_rho     :      0.01s CPU      0.01s WALL (       8 calls)
     newd         :      0.02s CPU      0.01s WALL (       8 calls)
     mix_rho      :      0.00s CPU      0.00s WALL (       7 calls)

     Called by c_bands:
     init_us_2    :      0.01s CPU      0.01s WALL (     289 calls)
     cegterg      :      1.40s CPU      1.44s WALL (     119 calls)

     Called by sum_band:
     sum_band:bec :      0.00s CPU      0.00s WALL (     119 calls)
     addusdens    :      0.01s CPU      0.01s WALL (       7 calls)

     Called by *egterg:
     h_psi        :      0.58s CPU      0.58s WALL (     475 calls)
     s_psi        :      0.02s CPU      0.01s WALL (     475 calls)
     g_psi        :      0.01s CPU      0.00s WALL (     339 calls)
     cdiaghg      :      0.70s CPU      0.76s WALL (     458 calls)

     Called by h_psi:
     add_vuspsi   :      0.02s CPU      0.02s WALL (     475 calls)

     General routines
     calbec       :      0.04s CPU      0.04s WALL (     679 calls)
     fft          :      0.02s CPU      0.01s WALL (     128 calls)
     fftw         :      0.56s CPU      0.56s WALL (   15750 calls)
     davcio       :      0.00s CPU      0.01s WALL (      17 calls)
 
     Parallel routines
     fft_scatter  :      0.29s CPU      0.31s WALL (   15878 calls)
 
     PWSCF        :     5.82s CPU        27.19s WALL

 
   This run was terminated on:  16:25:38   9Apr2018            

=------------------------------------------------------------------------------=
   JOB DONE.
=------------------------------------------------------------------------------=
Application 30463116 resources: utime ~10402s, stime ~65s, Rss ~23732, inblocks ~3613322, outblocks ~3066898
