
     Program PWSCF v.5.4.0 starts on  6Apr2018 at 23:58:55 

     This program is part of the open-source Quantum ESPRESSO suite
     for quantum simulation of materials; please cite
         "P. Giannozzi et al., J. Phys.:Condens. Matter 21 395502 (2009);
          URL http://www.quantum-espresso.org", 
     in publications or presentations arising from this work. More details at
     http://www.quantum-espresso.org/quote

     Parallel version (MPI & OpenMP), running on     192 processor cores
     Number of MPI processes:               192
     Threads/MPI process:                     1
     K-points division:     npool     =      24
     R & G space division:  proc/nbgrp/npool/nimage =       8
     Waiting for input...
     Reading input from standard input
     Message from routine read_cards :
     DEPRECATED: no units specified in ATOMIC_POSITIONS card
     Message from routine read_cards :
     ATOMIC_POSITIONS: units set to alat

     Current dimensions of program PWSCF are:
     Max number of different atomic species (ntypx) = 10
     Max number of k-points (npk) =  40000
     Max angular momentum in pseudopotentials (lmaxx) =  3

     Subspace diagonalization in iterative solution of the eigenvalue problem:
     one sub-group per band group will be used
     scalapack distributed-memory algorithm (size of sub-group:  2*  2 procs)

 
     Parallelization info
     --------------------
     sticks:   dense  smooth     PW     G-vecs:    dense   smooth      PW
     Min          81      81     26                 1376     1376     260
     Max          82      82     27                 1380     1380     262
     Sum         649     649    211                11017    11017    2085
 


     bravais-lattice index     =            2
     lattice parameter (alat)  =      12.5779  a.u.
     unit-cell volume          =     497.4707 (a.u.)^3
     number of atoms/cell      =            2
     number of atomic types    =            1
     number of electrons       =        28.00
     number of Kohn-Sham states=           14
     kinetic-energy cutoff     =      30.0000  Ry
     charge density cutoff     =     120.0000  Ry
     convergence threshold     =      1.0E-08
     mixing beta               =       0.7000
     number of iterations used =            8  plain     mixing
     Exchange-correlation      =  SLA  PW   PBX  PBC ( 1  4  3  4 0 0)

     celldm(1)=  12.577930  celldm(2)=   0.000000  celldm(3)=   0.000000
     celldm(4)=   0.000000  celldm(5)=   0.000000  celldm(6)=   0.000000

     crystal axes: (cart. coord. in units of alat)
               a(1) = (  -0.500000   0.000000   0.500000 )  
               a(2) = (   0.000000   0.500000   0.500000 )  
               a(3) = (  -0.500000   0.500000   0.000000 )  

     reciprocal axes: (cart. coord. in units 2 pi/alat)
               b(1) = ( -1.000000 -1.000000  1.000000 )  
               b(2) = (  1.000000  1.000000  1.000000 )  
               b(3) = ( -1.000000  1.000000 -1.000000 )  


     PseudoPot. # 1 for Sn read from file:
     ./sn_pbe_v1.4.uspp.F.UPF
     MD5 check sum: 469debedee59599fedebd795477fea03
     Pseudo is Ultrasoft + core correction, Zval = 14.0
     Generated by new atomic code, or converted to UPF format
     Using radial grid of  891 points,  6 beta functions with: 
                l(1) =   0
                l(2) =   0
                l(3) =   1
                l(4) =   1
                l(5) =   2
                l(6) =   2
     Q(r) pseudized with  8 coefficients,  rinner =    1.350   1.350   1.350
                                                       1.350   1.350

     atomic species   valence    mass     pseudopotential
        Sn            14.00   118.71000     Sn( 1.00)

     48 Sym. Ops., with inversion, found (24 have fractional translation)



   Cartesian axes

     site n.     atom                  positions (alat units)
         1           Sn  tau(   1) = (   0.0000000   0.0000000   0.0000000  )
         2           Sn  tau(   2) = (   0.2500000   0.2500000   0.2500000  )

     number of k points=   408

     Number of k-points >= 100: set verbosity='high' to print them.

     Dense  grid:    11017 G-vectors     FFT dimensions: (  32,  32,  32)

     Largest allocated arrays     est. size (Mb)     dimensions
        Kohn-Sham Wavefunctions         0.04 Mb     (     182,   14)
        NL pseudopotentials             0.10 Mb     (     182,   36)
        Each V/rho on FFT grid          0.06 Mb     (    4096)
        Each G-vector array             0.01 Mb     (    1377)
        G-vector shells                 0.00 Mb     (     160)
     Largest temporary arrays     est. size (Mb)     dimensions
        Auxiliary wavefunctions         0.16 Mb     (     182,   56)
        Each subspace H/S matrix        0.01 Mb     (      28,   28)
        Each <psi_i|beta_j> matrix      0.01 Mb     (      36,   14)
        Arrays for rho mixing           0.50 Mb     (    4096,    8)

     Check: negative/imaginary core charge=   -0.000042    0.000000

     Initial potential from superposition of free atoms

     starting charge   25.99991, renormalised to   28.00000
     Starting wfc are   18 randomized atomic wfcs

     total cpu time spent up to now is        0.3 secs

     per-process dynamical memory:    10.7 Mb

     Self-consistent Calculation

     iteration #  1     ecut=    30.00 Ry     beta=0.70
     Davidson diagonalization with overlap
     ethr =  1.00E-02,  avg # of iterations =  2.6

     total cpu time spent up to now is        0.6 secs

     total energy              =    -317.42289898 Ry
     Harris-Foulkes estimate   =    -319.48561710 Ry
     estimated scf accuracy    <       2.51536525 Ry

     iteration #  2     ecut=    30.00 Ry     beta=0.70
     Davidson diagonalization with overlap
     ethr =  8.98E-03,  avg # of iterations =  3.0

     total cpu time spent up to now is        0.8 secs

     total energy              =    -318.33156764 Ry
     Harris-Foulkes estimate   =    -318.65394451 Ry
     estimated scf accuracy    <       0.48039279 Ry

     iteration #  3     ecut=    30.00 Ry     beta=0.70
     Davidson diagonalization with overlap
     ethr =  1.72E-03,  avg # of iterations =  2.0

     total cpu time spent up to now is        1.1 secs

     total energy              =    -318.42764603 Ry
     Harris-Foulkes estimate   =    -318.42926475 Ry
     estimated scf accuracy    <       0.00294251 Ry

     iteration #  4     ecut=    30.00 Ry     beta=0.70
     Davidson diagonalization with overlap
     ethr =  1.05E-05,  avg # of iterations =  3.1

     total cpu time spent up to now is        1.4 secs

     total energy              =    -318.42853621 Ry
     Harris-Foulkes estimate   =    -318.42866674 Ry
     estimated scf accuracy    <       0.00018797 Ry

     iteration #  5     ecut=    30.00 Ry     beta=0.70
     Davidson diagonalization with overlap
     ethr =  6.71E-07,  avg # of iterations =  3.0

     total cpu time spent up to now is        1.6 secs

     total energy              =    -318.42859520 Ry
     Harris-Foulkes estimate   =    -318.42859717 Ry
     estimated scf accuracy    <       0.00000325 Ry

     iteration #  6     ecut=    30.00 Ry     beta=0.70
     Davidson diagonalization with overlap
     ethr =  1.16E-08,  avg # of iterations =  3.6

     total cpu time spent up to now is        2.0 secs

     total energy              =    -318.42859647 Ry
     Harris-Foulkes estimate   =    -318.42859650 Ry
     estimated scf accuracy    <       0.00000005 Ry

     iteration #  7     ecut=    30.00 Ry     beta=0.70
     Davidson diagonalization with overlap
     ethr =  1.87E-10,  avg # of iterations =  3.4

     total cpu time spent up to now is        2.3 secs

     End of self-consistent calculation

     Number of k-points >= 100: set verbosity='high' to print the bands.

     highest occupied level (ev):     6.9874

!    total energy              =    -318.42859649 Ry
     Harris-Foulkes estimate   =    -318.42859649 Ry
     estimated scf accuracy    <          5.4E-09 Ry

     The total energy is the sum of the following terms:

     one-electron contribution =    -162.21626141 Ry
     hartree contribution      =      97.64382724 Ry
     xc contribution           =     -85.97282482 Ry
     ewald contribution        =    -167.88333750 Ry

     convergence has been achieved in   7 iterations

     Forces acting on atoms (Ry/au):

     atom    1 type  1   force =     0.00000000   -0.00000000    0.00000000
     atom    2 type  1   force =    -0.00000000    0.00000000   -0.00000000

     Total force =     0.000000     Total SCF correction =     0.000000


     entering subroutine stress ...

          total   stress  (Ry/bohr**3)                   (kbar)     P= -102.11
  -0.00069410   0.00000000  -0.00000000       -102.11      0.00     -0.00
   0.00000000  -0.00069410  -0.00000000          0.00   -102.11     -0.00
   0.00000000   0.00000000  -0.00069410          0.00      0.00   -102.11


     Writing output data file sn.alpha.save
 
     init_run     :      0.12s CPU      0.14s WALL (       1 calls)
     electrons    :      1.92s CPU      2.03s WALL (       1 calls)
     forces       :      0.02s CPU      0.02s WALL (       1 calls)
     stress       :      0.06s CPU      0.06s WALL (       1 calls)

     Called by init_run:
     wfcinit      :      0.05s CPU      0.06s WALL (       1 calls)
     potinit      :      0.00s CPU      0.01s WALL (       1 calls)

     Called by electrons:
     c_bands      :      1.69s CPU      1.77s WALL (       7 calls)
     sum_band     :      0.17s CPU      0.18s WALL (       7 calls)
     v_of_rho     :      0.01s CPU      0.02s WALL (       8 calls)
     newd         :      0.04s CPU      0.04s WALL (       8 calls)
     mix_rho      :      0.00s CPU      0.00s WALL (       7 calls)

     Called by c_bands:
     init_us_2    :      0.01s CPU      0.02s WALL (     289 calls)
     cegterg      :      1.46s CPU      1.50s WALL (     119 calls)

     Called by sum_band:
     sum_band:bec :      0.00s CPU      0.00s WALL (     119 calls)
     addusdens    :      0.06s CPU      0.05s WALL (       7 calls)

     Called by *egterg:
     h_psi        :      0.68s CPU      0.70s WALL (     526 calls)
     s_psi        :      0.02s CPU      0.03s WALL (     526 calls)
     g_psi        :      0.00s CPU      0.00s WALL (     390 calls)
     cdiaghg      :      0.62s CPU      0.66s WALL (     509 calls)

     Called by h_psi:
     add_vuspsi   :      0.02s CPU      0.03s WALL (     526 calls)

     General routines
     calbec       :      0.06s CPU      0.05s WALL (     730 calls)
     fft          :      0.00s CPU      0.01s WALL (     128 calls)
     fftw         :      0.62s CPU      0.65s WALL (   13174 calls)
     davcio       :      0.00s CPU      0.01s WALL (      17 calls)
 
     Parallel routines
     fft_scatter  :      0.26s CPU      0.28s WALL (   13302 calls)
 
     PWSCF        :     2.72s CPU        19.74s WALL

 
   This run was terminated on:  23:59:15   6Apr2018            

=------------------------------------------------------------------------------=
   JOB DONE.
=------------------------------------------------------------------------------=
Application 30443820 resources: utime ~3765s, stime ~32s, Rss ~26912, inblocks ~1802003, outblocks ~1655503
