
     Program PWSCF v.5.4.0 starts on  7Apr2018 at  0: 9:12 

     This program is part of the open-source Quantum ESPRESSO suite
     for quantum simulation of materials; please cite
         "P. Giannozzi et al., J. Phys.:Condens. Matter 21 395502 (2009);
          URL http://www.quantum-espresso.org", 
     in publications or presentations arising from this work. More details at
     http://www.quantum-espresso.org/quote

     Parallel version (MPI & OpenMP), running on     192 processor cores
     Number of MPI processes:               192
     Threads/MPI process:                     1
     K-points division:     npool     =      24
     R & G space division:  proc/nbgrp/npool/nimage =       8
     Waiting for input...
     Reading input from standard input
     Message from routine read_cards :
     DEPRECATED: no units specified in ATOMIC_POSITIONS card
     Message from routine read_cards :
     ATOMIC_POSITIONS: units set to alat

     Current dimensions of program PWSCF are:
     Max number of different atomic species (ntypx) = 10
     Max number of k-points (npk) =  40000
     Max angular momentum in pseudopotentials (lmaxx) =  3

     Subspace diagonalization in iterative solution of the eigenvalue problem:
     one sub-group per band group will be used
     scalapack distributed-memory algorithm (size of sub-group:  2*  2 procs)

 
     Parallelization info
     --------------------
     sticks:   dense  smooth     PW     G-vecs:    dense   smooth      PW
     Min         311     311     90                10228    10228    1578
     Max         312     312     91                10231    10231    1579
     Sum        2491    2491    721                81835    81835   12627
 


     bravais-lattice index     =            2
     lattice parameter (alat)  =      12.5779  a.u.
     unit-cell volume          =     497.4707 (a.u.)^3
     number of atoms/cell      =            2
     number of atomic types    =            1
     number of electrons       =        28.00
     number of Kohn-Sham states=           14
     kinetic-energy cutoff     =     114.0000  Ry
     charge density cutoff     =     456.0000  Ry
     convergence threshold     =      1.0E-08
     mixing beta               =       0.7000
     number of iterations used =            8  plain     mixing
     Exchange-correlation      =  SLA  PW   PBX  PBC ( 1  4  3  4 0 0)

     celldm(1)=  12.577930  celldm(2)=   0.000000  celldm(3)=   0.000000
     celldm(4)=   0.000000  celldm(5)=   0.000000  celldm(6)=   0.000000

     crystal axes: (cart. coord. in units of alat)
               a(1) = (  -0.500000   0.000000   0.500000 )  
               a(2) = (   0.000000   0.500000   0.500000 )  
               a(3) = (  -0.500000   0.500000   0.000000 )  

     reciprocal axes: (cart. coord. in units 2 pi/alat)
               b(1) = ( -1.000000 -1.000000  1.000000 )  
               b(2) = (  1.000000  1.000000  1.000000 )  
               b(3) = ( -1.000000  1.000000 -1.000000 )  


     PseudoPot. # 1 for Sn read from file:
     ./sn_pbe_v1.4.uspp.F.UPF
     MD5 check sum: 469debedee59599fedebd795477fea03
     Pseudo is Ultrasoft + core correction, Zval = 14.0
     Generated by new atomic code, or converted to UPF format
     Using radial grid of  891 points,  6 beta functions with: 
                l(1) =   0
                l(2) =   0
                l(3) =   1
                l(4) =   1
                l(5) =   2
                l(6) =   2
     Q(r) pseudized with  8 coefficients,  rinner =    1.350   1.350   1.350
                                                       1.350   1.350

     atomic species   valence    mass     pseudopotential
        Sn            14.00   118.71000     Sn( 1.00)

     48 Sym. Ops., with inversion, found (24 have fractional translation)



   Cartesian axes

     site n.     atom                  positions (alat units)
         1           Sn  tau(   1) = (   0.0000000   0.0000000   0.0000000  )
         2           Sn  tau(   2) = (   0.2500000   0.2500000   0.2500000  )

     number of k points=   408

     Number of k-points >= 100: set verbosity='high' to print them.

     Dense  grid:    81835 G-vectors     FFT dimensions: (  64,  64,  64)

     Largest allocated arrays     est. size (Mb)     dimensions
        Kohn-Sham Wavefunctions         0.28 Mb     (    1297,   14)
        NL pseudopotentials             0.71 Mb     (    1297,   36)
        Each V/rho on FFT grid          0.50 Mb     (   32768)
        Each G-vector array             0.08 Mb     (   10231)
        G-vector shells                 0.00 Mb     (     603)
     Largest temporary arrays     est. size (Mb)     dimensions
        Auxiliary wavefunctions         1.11 Mb     (    1297,   56)
        Each subspace H/S matrix        0.01 Mb     (      28,   28)
        Each <psi_i|beta_j> matrix      0.01 Mb     (      36,   14)
        Arrays for rho mixing           4.00 Mb     (   32768,    8)

     Initial potential from superposition of free atoms

     starting charge   25.99991, renormalised to   28.00000
     Starting wfc are   18 randomized atomic wfcs

     total cpu time spent up to now is        0.8 secs

     per-process dynamical memory:    22.5 Mb

     Self-consistent Calculation

     iteration #  1     ecut=   114.00 Ry     beta=0.70
     Davidson diagonalization with overlap
     ethr =  1.00E-02,  avg # of iterations =  2.7

     total cpu time spent up to now is        2.0 secs

     total energy              =    -317.49932985 Ry
     Harris-Foulkes estimate   =    -319.56214503 Ry
     estimated scf accuracy    <       2.51372784 Ry

     iteration #  2     ecut=   114.00 Ry     beta=0.70
     Davidson diagonalization with overlap
     ethr =  8.98E-03,  avg # of iterations =  3.0

     total cpu time spent up to now is        3.2 secs

     total energy              =    -318.40742707 Ry
     Harris-Foulkes estimate   =    -318.72495487 Ry
     estimated scf accuracy    <       0.47254203 Ry

     iteration #  3     ecut=   114.00 Ry     beta=0.70
     Davidson diagonalization with overlap
     ethr =  1.69E-03,  avg # of iterations =  2.0

     total cpu time spent up to now is        4.3 secs

     total energy              =    -318.50233645 Ry
     Harris-Foulkes estimate   =    -318.50388892 Ry
     estimated scf accuracy    <       0.00285635 Ry

     iteration #  4     ecut=   114.00 Ry     beta=0.70
     Davidson diagonalization with overlap
     ethr =  1.02E-05,  avg # of iterations =  2.9

     total cpu time spent up to now is        5.6 secs

     total energy              =    -318.50321698 Ry
     Harris-Foulkes estimate   =    -318.50333300 Ry
     estimated scf accuracy    <       0.00017251 Ry

     iteration #  5     ecut=   114.00 Ry     beta=0.70
     Davidson diagonalization with overlap
     ethr =  6.16E-07,  avg # of iterations =  3.0

     total cpu time spent up to now is        6.8 secs

     total energy              =    -318.50327001 Ry
     Harris-Foulkes estimate   =    -318.50327074 Ry
     estimated scf accuracy    <       0.00000149 Ry

     iteration #  6     ecut=   114.00 Ry     beta=0.70
     Davidson diagonalization with overlap
     ethr =  5.33E-09,  avg # of iterations =  4.0

     total cpu time spent up to now is        8.2 secs

     total energy              =    -318.50327079 Ry
     Harris-Foulkes estimate   =    -318.50327084 Ry
     estimated scf accuracy    <       0.00000007 Ry

     iteration #  7     ecut=   114.00 Ry     beta=0.70
     Davidson diagonalization with overlap
     ethr =  2.48E-10,  avg # of iterations =  3.1

     total cpu time spent up to now is        9.6 secs

     End of self-consistent calculation

     Number of k-points >= 100: set verbosity='high' to print the bands.

     highest occupied level (ev):     6.9856

!    total energy              =    -318.50327082 Ry
     Harris-Foulkes estimate   =    -318.50327082 Ry
     estimated scf accuracy    <          2.6E-09 Ry

     The total energy is the sum of the following terms:

     one-electron contribution =    -162.29075889 Ry
     hartree contribution      =      97.63061816 Ry
     xc contribution           =     -85.95979262 Ry
     ewald contribution        =    -167.88333747 Ry

     convergence has been achieved in   7 iterations

     Forces acting on atoms (Ry/au):

     atom    1 type  1   force =     0.00000000    0.00000000    0.00000000
     atom    2 type  1   force =    -0.00000000   -0.00000000   -0.00000000

     Total force =     0.000000     Total SCF correction =     0.000000


     entering subroutine stress ...

          total   stress  (Ry/bohr**3)                   (kbar)     P=   -2.51
  -0.00001708  -0.00000000  -0.00000000         -2.51     -0.00     -0.00
  -0.00000000  -0.00001708   0.00000000         -0.00     -2.51      0.00
  -0.00000000   0.00000000  -0.00001708         -0.00      0.00     -2.51


     Writing output data file sn.alpha.save
 
     init_run     :      0.57s CPU      0.63s WALL (       1 calls)
     electrons    :      8.66s CPU      8.83s WALL (       1 calls)
     forces       :      0.13s CPU      0.13s WALL (       1 calls)
     stress       :      0.42s CPU      0.42s WALL (       1 calls)

     Called by init_run:
     wfcinit      :      0.30s CPU      0.31s WALL (       1 calls)
     potinit      :      0.03s CPU      0.03s WALL (       1 calls)

     Called by electrons:
     c_bands      :      7.02s CPU      7.13s WALL (       7 calls)
     sum_band     :      1.20s CPU      1.23s WALL (       7 calls)
     v_of_rho     :      0.15s CPU      0.15s WALL (       8 calls)
     newd         :      0.26s CPU      0.28s WALL (       8 calls)
     mix_rho      :      0.02s CPU      0.02s WALL (       7 calls)

     Called by c_bands:
     init_us_2    :      0.13s CPU      0.13s WALL (     289 calls)
     cegterg      :      6.09s CPU      6.15s WALL (     119 calls)

     Called by sum_band:
     sum_band:bec :      0.00s CPU      0.00s WALL (     119 calls)
     addusdens    :      0.39s CPU      0.40s WALL (       7 calls)

     Called by *egterg:
     h_psi        :      4.50s CPU      4.52s WALL (     525 calls)
     s_psi        :      0.17s CPU      0.16s WALL (     525 calls)
     g_psi        :      0.03s CPU      0.03s WALL (     389 calls)
     cdiaghg      :      0.73s CPU      0.69s WALL (     508 calls)

     Called by h_psi:
     add_vuspsi   :      0.17s CPU      0.17s WALL (     525 calls)

     General routines
     calbec       :      0.32s CPU      0.32s WALL (     729 calls)
     fft          :      0.08s CPU      0.08s WALL (     128 calls)
     fftw         :      4.03s CPU      4.04s WALL (   13128 calls)
     davcio       :      0.00s CPU      0.34s WALL (      17 calls)
 
     Parallel routines
     fft_scatter  :      1.07s CPU      1.05s WALL (   13256 calls)
 
     PWSCF        :    10.84s CPU        27.59s WALL

 
   This run was terminated on:   0: 9:39   7Apr2018            

=------------------------------------------------------------------------------=
   JOB DONE.
=------------------------------------------------------------------------------=
Application 30443882 resources: utime ~5232s, stime ~48s, Rss ~67196, inblocks ~1803131, outblocks ~3253414
