
     Program PWSCF v.5.4.0 starts on  7Apr2018 at  0: 4:59 

     This program is part of the open-source Quantum ESPRESSO suite
     for quantum simulation of materials; please cite
         "P. Giannozzi et al., J. Phys.:Condens. Matter 21 395502 (2009);
          URL http://www.quantum-espresso.org", 
     in publications or presentations arising from this work. More details at
     http://www.quantum-espresso.org/quote

     Parallel version (MPI & OpenMP), running on     192 processor cores
     Number of MPI processes:               192
     Threads/MPI process:                     1
     K-points division:     npool     =      24
     R & G space division:  proc/nbgrp/npool/nimage =       8
     Waiting for input...
     Reading input from standard input
     Message from routine read_cards :
     DEPRECATED: no units specified in ATOMIC_POSITIONS card
     Message from routine read_cards :
     ATOMIC_POSITIONS: units set to alat

     Current dimensions of program PWSCF are:
     Max number of different atomic species (ntypx) = 10
     Max number of k-points (npk) =  40000
     Max angular momentum in pseudopotentials (lmaxx) =  3

     Subspace diagonalization in iterative solution of the eigenvalue problem:
     one sub-group per band group will be used
     scalapack distributed-memory algorithm (size of sub-group:  2*  2 procs)

 
     Parallelization info
     --------------------
     sticks:   dense  smooth     PW     G-vecs:    dense   smooth      PW
     Min         223     223     64                 6224     6224     991
     Max         224     224     65                 6227     6227     994
     Sum        1789    1789    517                49805    49805    7943
 


     bravais-lattice index     =            2
     lattice parameter (alat)  =      12.5779  a.u.
     unit-cell volume          =     497.4707 (a.u.)^3
     number of atoms/cell      =            2
     number of atomic types    =            1
     number of electrons       =        28.00
     number of Kohn-Sham states=           14
     kinetic-energy cutoff     =      82.0000  Ry
     charge density cutoff     =     328.0000  Ry
     convergence threshold     =      1.0E-08
     mixing beta               =       0.7000
     number of iterations used =            8  plain     mixing
     Exchange-correlation      =  SLA  PW   PBX  PBC ( 1  4  3  4 0 0)

     celldm(1)=  12.577930  celldm(2)=   0.000000  celldm(3)=   0.000000
     celldm(4)=   0.000000  celldm(5)=   0.000000  celldm(6)=   0.000000

     crystal axes: (cart. coord. in units of alat)
               a(1) = (  -0.500000   0.000000   0.500000 )  
               a(2) = (   0.000000   0.500000   0.500000 )  
               a(3) = (  -0.500000   0.500000   0.000000 )  

     reciprocal axes: (cart. coord. in units 2 pi/alat)
               b(1) = ( -1.000000 -1.000000  1.000000 )  
               b(2) = (  1.000000  1.000000  1.000000 )  
               b(3) = ( -1.000000  1.000000 -1.000000 )  


     PseudoPot. # 1 for Sn read from file:
     ./sn_pbe_v1.4.uspp.F.UPF
     MD5 check sum: 469debedee59599fedebd795477fea03
     Pseudo is Ultrasoft + core correction, Zval = 14.0
     Generated by new atomic code, or converted to UPF format
     Using radial grid of  891 points,  6 beta functions with: 
                l(1) =   0
                l(2) =   0
                l(3) =   1
                l(4) =   1
                l(5) =   2
                l(6) =   2
     Q(r) pseudized with  8 coefficients,  rinner =    1.350   1.350   1.350
                                                       1.350   1.350

     atomic species   valence    mass     pseudopotential
        Sn            14.00   118.71000     Sn( 1.00)

     24 Sym. Ops. (no inversion) found
          (note: 24 additional sym.ops. were found but ignored
           their fractional translations are incommensurate with FFT grid)


   Cartesian axes

     site n.     atom                  positions (alat units)
         1           Sn  tau(   1) = (   0.0000000   0.0000000   0.0000000  )
         2           Sn  tau(   2) = (   0.2500000   0.2500000   0.2500000  )

     number of k points=   408

     Number of k-points >= 100: set verbosity='high' to print them.

     Dense  grid:    49805 G-vectors     FFT dimensions: (  54,  54,  54)

     Largest allocated arrays     est. size (Mb)     dimensions
        Kohn-Sham Wavefunctions         0.17 Mb     (     791,   14)
        NL pseudopotentials             0.43 Mb     (     791,   36)
        Each V/rho on FFT grid          0.31 Mb     (   20412)
        Each G-vector array             0.05 Mb     (    6225)
        G-vector shells                 0.00 Mb     (     429)
     Largest temporary arrays     est. size (Mb)     dimensions
        Auxiliary wavefunctions         0.68 Mb     (     791,   56)
        Each subspace H/S matrix        0.01 Mb     (      28,   28)
        Each <psi_i|beta_j> matrix      0.01 Mb     (      36,   14)
        Arrays for rho mixing           2.49 Mb     (   20412,    8)

     Initial potential from superposition of free atoms

     starting charge   25.99991, renormalised to   28.00000
     Starting wfc are   18 randomized atomic wfcs

     total cpu time spent up to now is        0.6 secs

     per-process dynamical memory:    17.5 Mb

     Self-consistent Calculation

     iteration #  1     ecut=    82.00 Ry     beta=0.70
     Davidson diagonalization with overlap
     ethr =  1.00E-02,  avg # of iterations =  2.6

     total cpu time spent up to now is        1.4 secs

     total energy              =    -317.49735338 Ry
     Harris-Foulkes estimate   =    -319.56145794 Ry
     estimated scf accuracy    <       2.51450067 Ry

     iteration #  2     ecut=    82.00 Ry     beta=0.70
     Davidson diagonalization with overlap
     ethr =  8.98E-03,  avg # of iterations =  3.0

     total cpu time spent up to now is        2.3 secs

     total energy              =    -318.40594414 Ry
     Harris-Foulkes estimate   =    -318.72371588 Ry
     estimated scf accuracy    <       0.47295777 Ry

     iteration #  3     ecut=    82.00 Ry     beta=0.70
     Davidson diagonalization with overlap
     ethr =  1.69E-03,  avg # of iterations =  2.0

     total cpu time spent up to now is        3.0 secs

     total energy              =    -318.50091625 Ry
     Harris-Foulkes estimate   =    -318.50247701 Ry
     estimated scf accuracy    <       0.00286521 Ry

     iteration #  4     ecut=    82.00 Ry     beta=0.70
     Davidson diagonalization with overlap
     ethr =  1.02E-05,  avg # of iterations =  3.0

     total cpu time spent up to now is        3.9 secs

     total energy              =    -318.50179751 Ry
     Harris-Foulkes estimate   =    -318.50191358 Ry
     estimated scf accuracy    <       0.00017233 Ry

     iteration #  5     ecut=    82.00 Ry     beta=0.70
     Davidson diagonalization with overlap
     ethr =  6.15E-07,  avg # of iterations =  3.0

     total cpu time spent up to now is        4.7 secs

     total energy              =    -318.50185044 Ry
     Harris-Foulkes estimate   =    -318.50185115 Ry
     estimated scf accuracy    <       0.00000147 Ry

     iteration #  6     ecut=    82.00 Ry     beta=0.70
     Davidson diagonalization with overlap
     ethr =  5.26E-09,  avg # of iterations =  3.9

     total cpu time spent up to now is        5.7 secs

     total energy              =    -318.50185119 Ry
     Harris-Foulkes estimate   =    -318.50185124 Ry
     estimated scf accuracy    <       0.00000007 Ry

     iteration #  7     ecut=    82.00 Ry     beta=0.70
     Davidson diagonalization with overlap
     ethr =  2.60E-10,  avg # of iterations =  3.1

     total cpu time spent up to now is        6.7 secs

     End of self-consistent calculation

     Number of k-points >= 100: set verbosity='high' to print the bands.

     highest occupied level (ev):     6.9857

!    total energy              =    -318.50185122 Ry
     Harris-Foulkes estimate   =    -318.50185122 Ry
     estimated scf accuracy    <          2.5E-09 Ry

     The total energy is the sum of the following terms:

     one-electron contribution =    -162.28924854 Ry
     hartree contribution      =      97.63057090 Ry
     xc contribution           =     -85.95983611 Ry
     ewald contribution        =    -167.88333747 Ry

     convergence has been achieved in   7 iterations

     Forces acting on atoms (Ry/au):

     atom    1 type  1   force =     0.00000000    0.00000000    0.00000000
     atom    2 type  1   force =     0.00000000    0.00000000    0.00000000

     Total force =     0.000000     Total SCF correction =     0.000000


     entering subroutine stress ...

          total   stress  (Ry/bohr**3)                   (kbar)     P=   -4.00
  -0.00002717  -0.00000000  -0.00000000         -4.00     -0.00     -0.00
  -0.00000000  -0.00002717   0.00000000         -0.00     -4.00      0.00
  -0.00000000   0.00000000  -0.00002717         -0.00      0.00     -4.00


     Writing output data file sn.alpha.save
 
     init_run     :      0.41s CPU      0.42s WALL (       1 calls)
     electrons    :      5.98s CPU      6.16s WALL (       1 calls)
     forces       :      0.08s CPU      0.08s WALL (       1 calls)
     stress       :      0.25s CPU      0.25s WALL (       1 calls)

     Called by init_run:
     wfcinit      :      0.22s CPU      0.22s WALL (       1 calls)
     potinit      :      0.02s CPU      0.02s WALL (       1 calls)

     Called by electrons:
     c_bands      :      4.92s CPU      5.02s WALL (       7 calls)
     sum_band     :      0.81s CPU      0.82s WALL (       7 calls)
     v_of_rho     :      0.10s CPU      0.09s WALL (       8 calls)
     newd         :      0.15s CPU      0.17s WALL (       8 calls)
     mix_rho      :      0.01s CPU      0.01s WALL (       7 calls)

     Called by c_bands:
     init_us_2    :      0.05s CPU      0.07s WALL (     289 calls)
     cegterg      :      4.32s CPU      4.38s WALL (     119 calls)

     Called by sum_band:
     sum_band:bec :      0.01s CPU      0.00s WALL (     119 calls)
     addusdens    :      0.23s CPU      0.24s WALL (       7 calls)

     Called by *egterg:
     h_psi        :      3.15s CPU      3.18s WALL (     518 calls)
     s_psi        :      0.12s CPU      0.10s WALL (     518 calls)
     g_psi        :      0.03s CPU      0.02s WALL (     382 calls)
     cdiaghg      :      0.64s CPU      0.67s WALL (     501 calls)

     Called by h_psi:
     add_vuspsi   :      0.11s CPU      0.10s WALL (     518 calls)

     General routines
     calbec       :      0.18s CPU      0.19s WALL (     722 calls)
     fft          :      0.06s CPU      0.05s WALL (     128 calls)
     fftw         :      2.99s CPU      2.97s WALL (   13102 calls)
     davcio       :      0.00s CPU      0.01s WALL (      17 calls)
 
     Parallel routines
     fft_scatter  :      0.54s CPU      0.59s WALL (   13230 calls)
 
     PWSCF        :     7.57s CPU        24.49s WALL

 
   This run was terminated on:   0: 5:23   7Apr2018            

=------------------------------------------------------------------------------=
   JOB DONE.
=------------------------------------------------------------------------------=
Application 30443856 resources: utime ~4653s, stime ~41s, Rss ~50088, inblocks ~1802645, outblocks ~2532060
