
     Program PWSCF v.5.4.0 starts on  9Apr2018 at 16:35:20 

     This program is part of the open-source Quantum ESPRESSO suite
     for quantum simulation of materials; please cite
         "P. Giannozzi et al., J. Phys.:Condens. Matter 21 395502 (2009);
          URL http://www.quantum-espresso.org", 
     in publications or presentations arising from this work. More details at
     http://www.quantum-espresso.org/quote

     Parallel version (MPI & OpenMP), running on     384 processor cores
     Number of MPI processes:               384
     Threads/MPI process:                     1
     K-points division:     npool     =      24
     R & G space division:  proc/nbgrp/npool/nimage =      16
     Waiting for input...
     Reading input from standard input
     Message from routine read_cards :
     DEPRECATED: no units specified in ATOMIC_POSITIONS card
     Message from routine read_cards :
     ATOMIC_POSITIONS: units set to alat

     Current dimensions of program PWSCF are:
     Max number of different atomic species (ntypx) = 10
     Max number of k-points (npk) =  40000
     Max angular momentum in pseudopotentials (lmaxx) =  3

     Subspace diagonalization in iterative solution of the eigenvalue problem:
     one sub-group per band group will be used
     scalapack distributed-memory algorithm (size of sub-group:  2*  2 procs)

 
     Parallelization info
     --------------------
     sticks:   dense  smooth     PW     G-vecs:    dense   smooth      PW
     Min         101     101     29                 2670     2670     428
     Max         102     102     30                 2671     2671     431
     Sum        1627    1627    475                42735    42735    6879
 


     bravais-lattice index     =            2
     lattice parameter (alat)  =      12.5779  a.u.
     unit-cell volume          =     497.4707 (a.u.)^3
     number of atoms/cell      =            2
     number of atomic types    =            1
     number of electrons       =        28.00
     number of Kohn-Sham states=           18
     kinetic-energy cutoff     =      74.0000  Ry
     charge density cutoff     =     296.0000  Ry
     convergence threshold     =      1.0E-08
     mixing beta               =       0.7000
     number of iterations used =            8  plain     mixing
     Exchange-correlation      =  SLA  PW   PBX  PBC ( 1  4  3  4 0 0)

     celldm(1)=  12.577930  celldm(2)=   0.000000  celldm(3)=   0.000000
     celldm(4)=   0.000000  celldm(5)=   0.000000  celldm(6)=   0.000000

     crystal axes: (cart. coord. in units of alat)
               a(1) = (  -0.500000   0.000000   0.500000 )  
               a(2) = (   0.000000   0.500000   0.500000 )  
               a(3) = (  -0.500000   0.500000   0.000000 )  

     reciprocal axes: (cart. coord. in units 2 pi/alat)
               b(1) = ( -1.000000 -1.000000  1.000000 )  
               b(2) = (  1.000000  1.000000  1.000000 )  
               b(3) = ( -1.000000  1.000000 -1.000000 )  


     PseudoPot. # 1 for Sn read from file:
     ./sn_pbe_v1.4.uspp.F.UPF
     MD5 check sum: 469debedee59599fedebd795477fea03
     Pseudo is Ultrasoft + core correction, Zval = 14.0
     Generated by new atomic code, or converted to UPF format
     Using radial grid of  891 points,  6 beta functions with: 
                l(1) =   0
                l(2) =   0
                l(3) =   1
                l(4) =   1
                l(5) =   2
                l(6) =   2
     Q(r) pseudized with  8 coefficients,  rinner =    1.350   1.350   1.350
                                                       1.350   1.350

     atomic species   valence    mass     pseudopotential
        Sn            14.00   118.71000     Sn( 1.00)

     24 Sym. Ops. (no inversion) found
          (note: 24 additional sym.ops. were found but ignored
           their fractional translations are incommensurate with FFT grid)


   Cartesian axes

     site n.     atom                  positions (alat units)
         1           Sn  tau(   1) = (   0.0000000   0.0000000   0.0000000  )
         2           Sn  tau(   2) = (   0.2500000   0.2500000   0.2500000  )

     number of k points=   408  Marzari-Vanderbilt smearing, width (Ry)=  0.0200

     Number of k-points >= 100: set verbosity='high' to print them.

     Dense  grid:    42735 G-vectors     FFT dimensions: (  50,  50,  50)

     Largest allocated arrays     est. size (Mb)     dimensions
        Kohn-Sham Wavefunctions         0.09 Mb     (     339,   18)
        NL pseudopotentials             0.19 Mb     (     339,   36)
        Each V/rho on FFT grid          0.15 Mb     (   10000)
        Each G-vector array             0.02 Mb     (    2671)
        G-vector shells                 0.00 Mb     (     379)
     Largest temporary arrays     est. size (Mb)     dimensions
        Auxiliary wavefunctions         0.37 Mb     (     339,   72)
        Each subspace H/S matrix        0.02 Mb     (      36,   36)
        Each <psi_i|beta_j> matrix      0.01 Mb     (      36,   18)
        Arrays for rho mixing           1.22 Mb     (   10000,    8)

     Check: negative/imaginary core charge=   -0.000001    0.000000

     Initial potential from superposition of free atoms

     starting charge   25.99991, renormalised to   28.00000
     Starting wfc are   18 randomized atomic wfcs

     total cpu time spent up to now is        1.3 secs

     per-process dynamical memory:    13.9 Mb

     Self-consistent Calculation

     iteration #  1     ecut=    74.00 Ry     beta=0.70
     Davidson diagonalization with overlap
     ethr =  1.00E-02,  avg # of iterations =  3.6

     total cpu time spent up to now is        2.2 secs

     total energy              =    -317.47614866 Ry
     Harris-Foulkes estimate   =    -319.56291791 Ry
     estimated scf accuracy    <       2.54303964 Ry

     iteration #  2     ecut=    74.00 Ry     beta=0.70
     Davidson diagonalization with overlap
     ethr =  9.08E-03,  avg # of iterations =  3.0

     total cpu time spent up to now is        2.9 secs

     total energy              =    -318.40126825 Ry
     Harris-Foulkes estimate   =    -318.73219128 Ry
     estimated scf accuracy    <       0.49401935 Ry

     iteration #  3     ecut=    74.00 Ry     beta=0.70
     Davidson diagonalization with overlap
     ethr =  1.76E-03,  avg # of iterations =  2.0

     total cpu time spent up to now is        3.6 secs

     total energy              =    -318.49929865 Ry
     Harris-Foulkes estimate   =    -318.50074799 Ry
     estimated scf accuracy    <       0.00300262 Ry

     iteration #  4     ecut=    74.00 Ry     beta=0.70
     Davidson diagonalization with overlap
     ethr =  1.07E-05,  avg # of iterations =  3.2

     total cpu time spent up to now is        5.4 secs

     total energy              =    -318.49995500 Ry
     Harris-Foulkes estimate   =    -318.50006121 Ry
     estimated scf accuracy    <       0.00016191 Ry

     iteration #  5     ecut=    74.00 Ry     beta=0.70
     Davidson diagonalization with overlap
     ethr =  5.78E-07,  avg # of iterations =  2.0

     total cpu time spent up to now is        7.1 secs

     total energy              =    -318.49999790 Ry
     Harris-Foulkes estimate   =    -318.49999864 Ry
     estimated scf accuracy    <       0.00000159 Ry

     iteration #  6     ecut=    74.00 Ry     beta=0.70
     Davidson diagonalization with overlap
     ethr =  5.67E-09,  avg # of iterations =  3.0

     total cpu time spent up to now is        8.5 secs

     End of self-consistent calculation

     Number of k-points >= 100: set verbosity='high' to print the bands.

     the Fermi energy is     6.8981 ev

!    total energy              =    -318.49999842 Ry
     Harris-Foulkes estimate   =    -318.49999841 Ry
     estimated scf accuracy    <          9.0E-09 Ry

     The total energy is the sum of the following terms:

     one-electron contribution =    -162.28489871 Ry
     hartree contribution      =      97.62754305 Ry
     xc contribution           =     -85.95958768 Ry
     ewald contribution        =    -167.88333747 Ry
     smearing contrib. (-TS)   =       0.00028239 Ry

     convergence has been achieved in   6 iterations

     Forces acting on atoms (Ry/au):

     atom    1 type  1   force =     0.00000000    0.00000000   -0.00000000
     atom    2 type  1   force =     0.00000000   -0.00000000    0.00000000

     Total force =     0.000000     Total SCF correction =     0.000000


     entering subroutine stress ...

          total   stress  (Ry/bohr**3)                   (kbar)     P=   -4.84
  -0.00003293   0.00000000  -0.00000000         -4.84      0.00     -0.00
   0.00000000  -0.00003293   0.00000000          0.00     -4.84      0.00
  -0.00000000   0.00000000  -0.00003293         -0.00      0.00     -4.84


     Writing output data file sn.alpha.save
 
     init_run     :      0.22s CPU      0.24s WALL (       1 calls)
     electrons    :      7.07s CPU      7.30s WALL (       1 calls)
     forces       :      0.06s CPU      0.06s WALL (       1 calls)
     stress       :      0.15s CPU      0.15s WALL (       1 calls)

     Called by init_run:
     wfcinit      :      0.13s CPU      0.13s WALL (       1 calls)
     potinit      :      0.00s CPU      0.01s WALL (       1 calls)

     Called by electrons:
     c_bands      :      6.16s CPU      6.27s WALL (       6 calls)
     sum_band     :      0.76s CPU      0.77s WALL (       6 calls)
     v_of_rho     :      0.04s CPU      0.04s WALL (       7 calls)
     newd         :      0.06s CPU      0.07s WALL (       7 calls)
     mix_rho      :      0.00s CPU      0.00s WALL (       6 calls)

     Called by c_bands:
     init_us_2    :      0.04s CPU      0.02s WALL (     255 calls)
     cegterg      :      2.67s CPU      2.73s WALL (     102 calls)

     Called by sum_band:
     sum_band:bec :      0.00s CPU      0.00s WALL (     102 calls)
     addusdens    :      0.08s CPU      0.09s WALL (       6 calls)

     Called by *egterg:
     h_psi        :      1.86s CPU      1.87s WALL (     416 calls)
     s_psi        :      0.02s CPU      0.04s WALL (     416 calls)
     g_psi        :      0.00s CPU      0.01s WALL (     297 calls)
     cdiaghg      :      0.65s CPU      0.66s WALL (     399 calls)

     Called by h_psi:
     add_vuspsi   :      0.05s CPU      0.04s WALL (     416 calls)

     General routines
     calbec       :      0.09s CPU      0.09s WALL (     603 calls)
     fft          :      0.02s CPU      0.02s WALL (     115 calls)
     fftw         :      1.94s CPU      1.89s WALL (   13384 calls)
     davcio       :      0.00s CPU      0.04s WALL (      17 calls)
 
     Parallel routines
     fft_scatter  :      0.74s CPU      0.75s WALL (   13499 calls)
 
     PWSCF        :     9.91s CPU        32.42s WALL

 
   This run was terminated on:  16:35:53   9Apr2018            

=------------------------------------------------------------------------------=
   JOB DONE.
=------------------------------------------------------------------------------=
Application 30463300 resources: utime ~12373s, stime ~77s, Rss ~34732, inblocks ~3630306, outblocks ~4057459
