
     Program PWSCF v.5.4.0 starts on  6Apr2018 at 23:58: 8 

     This program is part of the open-source Quantum ESPRESSO suite
     for quantum simulation of materials; please cite
         "P. Giannozzi et al., J. Phys.:Condens. Matter 21 395502 (2009);
          URL http://www.quantum-espresso.org", 
     in publications or presentations arising from this work. More details at
     http://www.quantum-espresso.org/quote

     Parallel version (MPI & OpenMP), running on     192 processor cores
     Number of MPI processes:               192
     Threads/MPI process:                     1
     K-points division:     npool     =      24
     R & G space division:  proc/nbgrp/npool/nimage =       8
     Waiting for input...
     Reading input from standard input
     Message from routine read_cards :
     DEPRECATED: no units specified in ATOMIC_POSITIONS card
     Message from routine read_cards :
     ATOMIC_POSITIONS: units set to alat

     Current dimensions of program PWSCF are:
     Max number of different atomic species (ntypx) = 10
     Max number of k-points (npk) =  40000
     Max angular momentum in pseudopotentials (lmaxx) =  3

     Subspace diagonalization in iterative solution of the eigenvalue problem:
     one sub-group per band group will be used
     scalapack distributed-memory algorithm (size of sub-group:  2*  2 procs)

 
     Parallelization info
     --------------------
     sticks:   dense  smooth     PW     G-vecs:    dense   smooth      PW
     Min          59      59     20                  858      858     170
     Max          60      60     21                  861      861     172
     Sum         475     475    163                 6879     6879    1363
 


     bravais-lattice index     =            2
     lattice parameter (alat)  =      12.5779  a.u.
     unit-cell volume          =     497.4707 (a.u.)^3
     number of atoms/cell      =            2
     number of atomic types    =            1
     number of electrons       =        28.00
     number of Kohn-Sham states=           14
     kinetic-energy cutoff     =      22.0000  Ry
     charge density cutoff     =      88.0000  Ry
     convergence threshold     =      1.0E-08
     mixing beta               =       0.7000
     number of iterations used =            8  plain     mixing
     Exchange-correlation      =  SLA  PW   PBX  PBC ( 1  4  3  4 0 0)

     celldm(1)=  12.577930  celldm(2)=   0.000000  celldm(3)=   0.000000
     celldm(4)=   0.000000  celldm(5)=   0.000000  celldm(6)=   0.000000

     crystal axes: (cart. coord. in units of alat)
               a(1) = (  -0.500000   0.000000   0.500000 )  
               a(2) = (   0.000000   0.500000   0.500000 )  
               a(3) = (  -0.500000   0.500000   0.000000 )  

     reciprocal axes: (cart. coord. in units 2 pi/alat)
               b(1) = ( -1.000000 -1.000000  1.000000 )  
               b(2) = (  1.000000  1.000000  1.000000 )  
               b(3) = ( -1.000000  1.000000 -1.000000 )  


     PseudoPot. # 1 for Sn read from file:
     ./sn_pbe_v1.4.uspp.F.UPF
     MD5 check sum: 469debedee59599fedebd795477fea03
     Pseudo is Ultrasoft + core correction, Zval = 14.0
     Generated by new atomic code, or converted to UPF format
     Using radial grid of  891 points,  6 beta functions with: 
                l(1) =   0
                l(2) =   0
                l(3) =   1
                l(4) =   1
                l(5) =   2
                l(6) =   2
     Q(r) pseudized with  8 coefficients,  rinner =    1.350   1.350   1.350
                                                       1.350   1.350

     atomic species   valence    mass     pseudopotential
        Sn            14.00   118.71000     Sn( 1.00)

     24 Sym. Ops. (no inversion) found
          (note: 24 additional sym.ops. were found but ignored
           their fractional translations are incommensurate with FFT grid)


   Cartesian axes

     site n.     atom                  positions (alat units)
         1           Sn  tau(   1) = (   0.0000000   0.0000000   0.0000000  )
         2           Sn  tau(   2) = (   0.2500000   0.2500000   0.2500000  )

     number of k points=   408

     Number of k-points >= 100: set verbosity='high' to print them.

     Dense  grid:     6879 G-vectors     FFT dimensions: (  27,  27,  27)

     Largest allocated arrays     est. size (Mb)     dimensions
        Kohn-Sham Wavefunctions         0.03 Mb     (     121,   14)
        NL pseudopotentials             0.07 Mb     (     121,   36)
        Each V/rho on FFT grid          0.04 Mb     (    2916)
        Each G-vector array             0.01 Mb     (     859)
        G-vector shells                 0.00 Mb     (     116)
     Largest temporary arrays     est. size (Mb)     dimensions
        Auxiliary wavefunctions         0.10 Mb     (     121,   56)
        Each subspace H/S matrix        0.01 Mb     (      28,   28)
        Each <psi_i|beta_j> matrix      0.01 Mb     (      36,   14)
        Arrays for rho mixing           0.36 Mb     (    2916,    8)

     Check: negative/imaginary core charge=   -0.000501    0.000000

     Initial potential from superposition of free atoms

     starting charge   25.99991, renormalised to   28.00000
     Starting wfc are   18 randomized atomic wfcs

     total cpu time spent up to now is        0.2 secs

     per-process dynamical memory:     9.8 Mb

     Self-consistent Calculation

     iteration #  1     ecut=    22.00 Ry     beta=0.70
     Davidson diagonalization with overlap
     ethr =  1.00E-02,  avg # of iterations =  2.0

     total cpu time spent up to now is        0.4 secs

     total energy              =    -317.20567738 Ry
     Harris-Foulkes estimate   =    -319.29972835 Ry
     estimated scf accuracy    <       2.53013164 Ry

     iteration #  2     ecut=    22.00 Ry     beta=0.70
     Davidson diagonalization with overlap
     ethr =  9.04E-03,  avg # of iterations =  3.0

     total cpu time spent up to now is        0.7 secs

     total energy              =    -318.13773449 Ry
     Harris-Foulkes estimate   =    -318.49278680 Ry
     estimated scf accuracy    <       0.52902222 Ry

     iteration #  3     ecut=    22.00 Ry     beta=0.70
     Davidson diagonalization with overlap
     ethr =  1.89E-03,  avg # of iterations =  2.0

     total cpu time spent up to now is        0.9 secs

     total energy              =    -318.24256956 Ry
     Harris-Foulkes estimate   =    -318.24481588 Ry
     estimated scf accuracy    <       0.00383295 Ry

     iteration #  4     ecut=    22.00 Ry     beta=0.70
     Davidson diagonalization with overlap
     ethr =  1.37E-05,  avg # of iterations =  3.1

     total cpu time spent up to now is        1.2 secs

     total energy              =    -318.24381002 Ry
     Harris-Foulkes estimate   =    -318.24399064 Ry
     estimated scf accuracy    <       0.00029713 Ry

     iteration #  5     ecut=    22.00 Ry     beta=0.70
     Davidson diagonalization with overlap
     ethr =  1.06E-06,  avg # of iterations =  2.1

     total cpu time spent up to now is        1.4 secs

     total energy              =    -318.24386775 Ry
     Harris-Foulkes estimate   =    -318.24387121 Ry
     estimated scf accuracy    <       0.00000476 Ry

     iteration #  6     ecut=    22.00 Ry     beta=0.70
     Davidson diagonalization with overlap
     ethr =  1.70E-08,  avg # of iterations =  3.2

     total cpu time spent up to now is        1.7 secs

     total energy              =    -318.24387047 Ry
     Harris-Foulkes estimate   =    -318.24387096 Ry
     estimated scf accuracy    <       0.00000069 Ry

     iteration #  7     ecut=    22.00 Ry     beta=0.70
     Davidson diagonalization with overlap
     ethr =  2.48E-09,  avg # of iterations =  2.0

     total cpu time spent up to now is        1.9 secs

     End of self-consistent calculation

     Number of k-points >= 100: set verbosity='high' to print the bands.

     highest occupied level (ev):     7.0129

!    total energy              =    -318.24387064 Ry
     Harris-Foulkes estimate   =    -318.24387064 Ry
     estimated scf accuracy    <          3.0E-09 Ry

     The total energy is the sum of the following terms:

     one-electron contribution =    -161.94197679 Ry
     hartree contribution      =      97.71605660 Ry
     xc contribution           =     -86.13461296 Ry
     ewald contribution        =    -167.88333749 Ry

     convergence has been achieved in   7 iterations

     Forces acting on atoms (Ry/au):

     atom    1 type  1   force =     0.00000000    0.00000000    0.00000000
     atom    2 type  1   force =     0.00000000    0.00000000    0.00000000

     Total force =     0.000000     Total SCF correction =     0.000000


     entering subroutine stress ...

          total   stress  (Ry/bohr**3)                   (kbar)     P=  -52.57
  -0.00035736   0.00000000   0.00000000        -52.57      0.00      0.00
   0.00000000  -0.00035736  -0.00000000          0.00    -52.57     -0.00
   0.00000000  -0.00000000  -0.00035736          0.00     -0.00    -52.57


     Writing output data file sn.alpha.save
 
     init_run     :      0.11s CPU      0.12s WALL (       1 calls)
     electrons    :      1.55s CPU      1.68s WALL (       1 calls)
     forces       :      0.01s CPU      0.02s WALL (       1 calls)
     stress       :      0.04s CPU      0.04s WALL (       1 calls)

     Called by init_run:
     wfcinit      :      0.05s CPU      0.06s WALL (       1 calls)
     potinit      :      0.00s CPU      0.01s WALL (       1 calls)

     Called by electrons:
     c_bands      :      1.38s CPU      1.46s WALL (       7 calls)
     sum_band     :      0.12s CPU      0.14s WALL (       7 calls)
     v_of_rho     :      0.00s CPU      0.01s WALL (       8 calls)
     newd         :      0.03s CPU      0.02s WALL (       8 calls)
     mix_rho      :      0.00s CPU      0.00s WALL (       7 calls)

     Called by c_bands:
     init_us_2    :      0.00s CPU      0.01s WALL (     289 calls)
     cegterg      :      1.22s CPU      1.28s WALL (     119 calls)

     Called by sum_band:
     sum_band:bec :      0.00s CPU      0.00s WALL (     119 calls)
     addusdens    :      0.02s CPU      0.03s WALL (       7 calls)

     Called by *egterg:
     h_psi        :      0.58s CPU      0.61s WALL (     479 calls)
     s_psi        :      0.02s CPU      0.02s WALL (     479 calls)
     g_psi        :      0.01s CPU      0.00s WALL (     343 calls)
     cdiaghg      :      0.52s CPU      0.58s WALL (     462 calls)

     Called by h_psi:
     add_vuspsi   :      0.01s CPU      0.02s WALL (     479 calls)

     General routines
     calbec       :      0.02s CPU      0.04s WALL (     683 calls)
     fft          :      0.00s CPU      0.01s WALL (     128 calls)
     fftw         :      0.53s CPU      0.58s WALL (   13000 calls)
     davcio       :      0.00s CPU      0.01s WALL (      17 calls)
 
     Parallel routines
     fft_scatter  :      0.20s CPU      0.23s WALL (   13128 calls)
 
     PWSCF        :     2.68s CPU        14.93s WALL

 
   This run was terminated on:  23:58:23   6Apr2018            

=------------------------------------------------------------------------------=
   JOB DONE.
=------------------------------------------------------------------------------=
Application 30443817 resources: utime ~2848s, stime ~32s, Rss ~24332, inblocks ~1802030, outblocks ~1561010
