
     Program PWSCF v.5.4.0 starts on  7Apr2018 at  0: 8:37 

     This program is part of the open-source Quantum ESPRESSO suite
     for quantum simulation of materials; please cite
         "P. Giannozzi et al., J. Phys.:Condens. Matter 21 395502 (2009);
          URL http://www.quantum-espresso.org", 
     in publications or presentations arising from this work. More details at
     http://www.quantum-espresso.org/quote

     Parallel version (MPI & OpenMP), running on     192 processor cores
     Number of MPI processes:               192
     Threads/MPI process:                     1
     K-points division:     npool     =      24
     R & G space division:  proc/nbgrp/npool/nimage =       8
     Waiting for input...
     Reading input from standard input
     Message from routine read_cards :
     DEPRECATED: no units specified in ATOMIC_POSITIONS card
     Message from routine read_cards :
     ATOMIC_POSITIONS: units set to alat

     Current dimensions of program PWSCF are:
     Max number of different atomic species (ntypx) = 10
     Max number of k-points (npk) =  40000
     Max angular momentum in pseudopotentials (lmaxx) =  3

     Subspace diagonalization in iterative solution of the eigenvalue problem:
     one sub-group per band group will be used
     scalapack distributed-memory algorithm (size of sub-group:  2*  2 procs)

 
     Parallelization info
     --------------------
     sticks:   dense  smooth     PW     G-vecs:    dense   smooth      PW
     Min         300     300     85                 9708     9708    1503
     Max         302     302     86                 9709     9709    1506
     Sum        2407    2407    685                77665    77665   12039
 


     bravais-lattice index     =            2
     lattice parameter (alat)  =      12.5779  a.u.
     unit-cell volume          =     497.4707 (a.u.)^3
     number of atoms/cell      =            2
     number of atomic types    =            1
     number of electrons       =        28.00
     number of Kohn-Sham states=           14
     kinetic-energy cutoff     =     110.0000  Ry
     charge density cutoff     =     440.0000  Ry
     convergence threshold     =      1.0E-08
     mixing beta               =       0.7000
     number of iterations used =            8  plain     mixing
     Exchange-correlation      =  SLA  PW   PBX  PBC ( 1  4  3  4 0 0)

     celldm(1)=  12.577930  celldm(2)=   0.000000  celldm(3)=   0.000000
     celldm(4)=   0.000000  celldm(5)=   0.000000  celldm(6)=   0.000000

     crystal axes: (cart. coord. in units of alat)
               a(1) = (  -0.500000   0.000000   0.500000 )  
               a(2) = (   0.000000   0.500000   0.500000 )  
               a(3) = (  -0.500000   0.500000   0.000000 )  

     reciprocal axes: (cart. coord. in units 2 pi/alat)
               b(1) = ( -1.000000 -1.000000  1.000000 )  
               b(2) = (  1.000000  1.000000  1.000000 )  
               b(3) = ( -1.000000  1.000000 -1.000000 )  


     PseudoPot. # 1 for Sn read from file:
     ./sn_pbe_v1.4.uspp.F.UPF
     MD5 check sum: 469debedee59599fedebd795477fea03
     Pseudo is Ultrasoft + core correction, Zval = 14.0
     Generated by new atomic code, or converted to UPF format
     Using radial grid of  891 points,  6 beta functions with: 
                l(1) =   0
                l(2) =   0
                l(3) =   1
                l(4) =   1
                l(5) =   2
                l(6) =   2
     Q(r) pseudized with  8 coefficients,  rinner =    1.350   1.350   1.350
                                                       1.350   1.350

     atomic species   valence    mass     pseudopotential
        Sn            14.00   118.71000     Sn( 1.00)

     48 Sym. Ops., with inversion, found (24 have fractional translation)



   Cartesian axes

     site n.     atom                  positions (alat units)
         1           Sn  tau(   1) = (   0.0000000   0.0000000   0.0000000  )
         2           Sn  tau(   2) = (   0.2500000   0.2500000   0.2500000  )

     number of k points=   408

     Number of k-points >= 100: set verbosity='high' to print them.

     Dense  grid:    77665 G-vectors     FFT dimensions: (  60,  60,  60)

     Largest allocated arrays     est. size (Mb)     dimensions
        Kohn-Sham Wavefunctions         0.26 Mb     (    1235,   14)
        NL pseudopotentials             0.68 Mb     (    1235,   36)
        Each V/rho on FFT grid          0.44 Mb     (   28800)
        Each G-vector array             0.07 Mb     (    9709)
        G-vector shells                 0.00 Mb     (     587)
     Largest temporary arrays     est. size (Mb)     dimensions
        Auxiliary wavefunctions         1.06 Mb     (    1235,   56)
        Each subspace H/S matrix        0.01 Mb     (      28,   28)
        Each <psi_i|beta_j> matrix      0.01 Mb     (      36,   14)
        Arrays for rho mixing           3.52 Mb     (   28800,    8)

     Initial potential from superposition of free atoms

     starting charge   25.99991, renormalised to   28.00000
     Starting wfc are   18 randomized atomic wfcs

     total cpu time spent up to now is        0.8 secs

     per-process dynamical memory:    21.6 Mb

     Self-consistent Calculation

     iteration #  1     ecut=   110.00 Ry     beta=0.70
     Davidson diagonalization with overlap
     ethr =  1.00E-02,  avg # of iterations =  2.6

     total cpu time spent up to now is        1.9 secs

     total energy              =    -317.49906942 Ry
     Harris-Foulkes estimate   =    -319.56215799 Ry
     estimated scf accuracy    <       2.51381837 Ry

     iteration #  2     ecut=   110.00 Ry     beta=0.70
     Davidson diagonalization with overlap
     ethr =  8.98E-03,  avg # of iterations =  3.0

     total cpu time spent up to now is        3.1 secs

     total energy              =    -318.40721947 Ry
     Harris-Foulkes estimate   =    -318.72477396 Ry
     estimated scf accuracy    <       0.47258526 Ry

     iteration #  3     ecut=   110.00 Ry     beta=0.70
     Davidson diagonalization with overlap
     ethr =  1.69E-03,  avg # of iterations =  2.0

     total cpu time spent up to now is        4.1 secs

     total energy              =    -318.50214210 Ry
     Harris-Foulkes estimate   =    -318.50369619 Ry
     estimated scf accuracy    <       0.00285662 Ry

     iteration #  4     ecut=   110.00 Ry     beta=0.70
     Davidson diagonalization with overlap
     ethr =  1.02E-05,  avg # of iterations =  2.9

     total cpu time spent up to now is        5.3 secs

     total energy              =    -318.50302231 Ry
     Harris-Foulkes estimate   =    -318.50313825 Ry
     estimated scf accuracy    <       0.00017236 Ry

     iteration #  5     ecut=   110.00 Ry     beta=0.70
     Davidson diagonalization with overlap
     ethr =  6.16E-07,  avg # of iterations =  3.0

     total cpu time spent up to now is        6.4 secs

     total energy              =    -318.50307524 Ry
     Harris-Foulkes estimate   =    -318.50307594 Ry
     estimated scf accuracy    <       0.00000147 Ry

     iteration #  6     ecut=   110.00 Ry     beta=0.70
     Davidson diagonalization with overlap
     ethr =  5.26E-09,  avg # of iterations =  4.0

     total cpu time spent up to now is        7.8 secs

     total energy              =    -318.50307600 Ry
     Harris-Foulkes estimate   =    -318.50307605 Ry
     estimated scf accuracy    <       0.00000007 Ry

     iteration #  7     ecut=   110.00 Ry     beta=0.70
     Davidson diagonalization with overlap
     ethr =  2.56E-10,  avg # of iterations =  3.1

     total cpu time spent up to now is        9.1 secs

     End of self-consistent calculation

     Number of k-points >= 100: set verbosity='high' to print the bands.

     highest occupied level (ev):     6.9856

!    total energy              =    -318.50307603 Ry
     Harris-Foulkes estimate   =    -318.50307603 Ry
     estimated scf accuracy    <          2.5E-09 Ry

     The total energy is the sum of the following terms:

     one-electron contribution =    -162.29055387 Ry
     hartree contribution      =      97.63061553 Ry
     xc contribution           =     -85.95980023 Ry
     ewald contribution        =    -167.88333747 Ry

     convergence has been achieved in   7 iterations

     Forces acting on atoms (Ry/au):

     atom    1 type  1   force =     0.00000000    0.00000000    0.00000000
     atom    2 type  1   force =     0.00000000    0.00000000   -0.00000000

     Total force =     0.000000     Total SCF correction =     0.000000


     entering subroutine stress ...

          total   stress  (Ry/bohr**3)                   (kbar)     P=   -2.84
  -0.00001928   0.00000000  -0.00000000         -2.84      0.00     -0.00
   0.00000000  -0.00001928   0.00000000          0.00     -2.84      0.00
  -0.00000000   0.00000000  -0.00001928         -0.00      0.00     -2.84


     Writing output data file sn.alpha.save
 
     init_run     :      0.55s CPU      0.59s WALL (       1 calls)
     electrons    :      8.20s CPU      8.36s WALL (       1 calls)
     forces       :      0.12s CPU      0.12s WALL (       1 calls)
     stress       :      0.40s CPU      0.39s WALL (       1 calls)

     Called by init_run:
     wfcinit      :      0.29s CPU      0.29s WALL (       1 calls)
     potinit      :      0.02s CPU      0.03s WALL (       1 calls)

     Called by electrons:
     c_bands      :      6.65s CPU      6.76s WALL (       7 calls)
     sum_band     :      1.15s CPU      1.17s WALL (       7 calls)
     v_of_rho     :      0.13s CPU      0.13s WALL (       8 calls)
     newd         :      0.24s CPU      0.27s WALL (       8 calls)
     mix_rho      :      0.02s CPU      0.02s WALL (       7 calls)

     Called by c_bands:
     init_us_2    :      0.12s CPU      0.12s WALL (     289 calls)
     cegterg      :      5.76s CPU      5.80s WALL (     119 calls)

     Called by sum_band:
     sum_band:bec :      0.01s CPU      0.00s WALL (     119 calls)
     addusdens    :      0.37s CPU      0.39s WALL (       7 calls)

     Called by *egterg:
     h_psi        :      4.14s CPU      4.23s WALL (     522 calls)
     s_psi        :      0.14s CPU      0.15s WALL (     522 calls)
     g_psi        :      0.03s CPU      0.03s WALL (     386 calls)
     cdiaghg      :      0.78s CPU      0.68s WALL (     505 calls)

     Called by h_psi:
     add_vuspsi   :      0.15s CPU      0.16s WALL (     522 calls)

     General routines
     calbec       :      0.32s CPU      0.30s WALL (     726 calls)
     fft          :      0.08s CPU      0.07s WALL (     128 calls)
     fftw         :      3.78s CPU      3.83s WALL (   13114 calls)
     davcio       :      0.00s CPU      0.29s WALL (      17 calls)
 
     Parallel routines
     fft_scatter  :      1.02s CPU      0.95s WALL (   13242 calls)
 
     PWSCF        :    10.00s CPU        26.41s WALL

 
   This run was terminated on:   0: 9: 3   7Apr2018            

=------------------------------------------------------------------------------=
   JOB DONE.
=------------------------------------------------------------------------------=
Application 30443876 resources: utime ~5002s, stime ~47s, Rss ~64844, inblocks ~1803110, outblocks ~3155410
