
     Program PWSCF v.5.4.0 starts on  6Apr2018 at 23:58:30 

     This program is part of the open-source Quantum ESPRESSO suite
     for quantum simulation of materials; please cite
         "P. Giannozzi et al., J. Phys.:Condens. Matter 21 395502 (2009);
          URL http://www.quantum-espresso.org", 
     in publications or presentations arising from this work. More details at
     http://www.quantum-espresso.org/quote

     Parallel version (MPI & OpenMP), running on     192 processor cores
     Number of MPI processes:               192
     Threads/MPI process:                     1
     K-points division:     npool     =      24
     R & G space division:  proc/nbgrp/npool/nimage =       8
     Waiting for input...
     Reading input from standard input
     Message from routine read_cards :
     DEPRECATED: no units specified in ATOMIC_POSITIONS card
     Message from routine read_cards :
     ATOMIC_POSITIONS: units set to alat

     Current dimensions of program PWSCF are:
     Max number of different atomic species (ntypx) = 10
     Max number of k-points (npk) =  40000
     Max angular momentum in pseudopotentials (lmaxx) =  3

     Subspace diagonalization in iterative solution of the eigenvalue problem:
     one sub-group per band group will be used
     scalapack distributed-memory algorithm (size of sub-group:  2*  2 procs)

 
     Parallelization info
     --------------------
     sticks:   dense  smooth     PW     G-vecs:    dense   smooth      PW
     Min          71      71     23                 1109     1109     209
     Max          74      74     24                 1110     1110     212
     Sum         571     571    187                 8873     8873    1687
 


     bravais-lattice index     =            2
     lattice parameter (alat)  =      12.5779  a.u.
     unit-cell volume          =     497.4707 (a.u.)^3
     number of atoms/cell      =            2
     number of atomic types    =            1
     number of electrons       =        28.00
     number of Kohn-Sham states=           14
     kinetic-energy cutoff     =      26.0000  Ry
     charge density cutoff     =     104.0000  Ry
     convergence threshold     =      1.0E-08
     mixing beta               =       0.7000
     number of iterations used =            8  plain     mixing
     Exchange-correlation      =  SLA  PW   PBX  PBC ( 1  4  3  4 0 0)

     celldm(1)=  12.577930  celldm(2)=   0.000000  celldm(3)=   0.000000
     celldm(4)=   0.000000  celldm(5)=   0.000000  celldm(6)=   0.000000

     crystal axes: (cart. coord. in units of alat)
               a(1) = (  -0.500000   0.000000   0.500000 )  
               a(2) = (   0.000000   0.500000   0.500000 )  
               a(3) = (  -0.500000   0.500000   0.000000 )  

     reciprocal axes: (cart. coord. in units 2 pi/alat)
               b(1) = ( -1.000000 -1.000000  1.000000 )  
               b(2) = (  1.000000  1.000000  1.000000 )  
               b(3) = ( -1.000000  1.000000 -1.000000 )  


     PseudoPot. # 1 for Sn read from file:
     ./sn_pbe_v1.4.uspp.F.UPF
     MD5 check sum: 469debedee59599fedebd795477fea03
     Pseudo is Ultrasoft + core correction, Zval = 14.0
     Generated by new atomic code, or converted to UPF format
     Using radial grid of  891 points,  6 beta functions with: 
                l(1) =   0
                l(2) =   0
                l(3) =   1
                l(4) =   1
                l(5) =   2
                l(6) =   2
     Q(r) pseudized with  8 coefficients,  rinner =    1.350   1.350   1.350
                                                       1.350   1.350

     atomic species   valence    mass     pseudopotential
        Sn            14.00   118.71000     Sn( 1.00)

     24 Sym. Ops. (no inversion) found
          (note: 24 additional sym.ops. were found but ignored
           their fractional translations are incommensurate with FFT grid)


   Cartesian axes

     site n.     atom                  positions (alat units)
         1           Sn  tau(   1) = (   0.0000000   0.0000000   0.0000000  )
         2           Sn  tau(   2) = (   0.2500000   0.2500000   0.2500000  )

     number of k points=   408

     Number of k-points >= 100: set verbosity='high' to print them.

     Dense  grid:     8873 G-vectors     FFT dimensions: (  30,  30,  30)

     Largest allocated arrays     est. size (Mb)     dimensions
        Kohn-Sham Wavefunctions         0.03 Mb     (     146,   14)
        NL pseudopotentials             0.08 Mb     (     146,   36)
        Each V/rho on FFT grid          0.05 Mb     (    3600)
        Each G-vector array             0.01 Mb     (    1110)
        G-vector shells                 0.00 Mb     (     139)
     Largest temporary arrays     est. size (Mb)     dimensions
        Auxiliary wavefunctions         0.12 Mb     (     146,   56)
        Each subspace H/S matrix        0.01 Mb     (      28,   28)
        Each <psi_i|beta_j> matrix      0.01 Mb     (      36,   14)
        Arrays for rho mixing           0.44 Mb     (    3600,    8)

     Check: negative/imaginary core charge=   -0.000173    0.000000

     Initial potential from superposition of free atoms

     starting charge   25.99991, renormalised to   28.00000
     Starting wfc are   18 randomized atomic wfcs

     total cpu time spent up to now is        0.4 secs

     per-process dynamical memory:    10.3 Mb

     Self-consistent Calculation

     iteration #  1     ecut=    26.00 Ry     beta=0.70
     Davidson diagonalization with overlap
     ethr =  1.00E-02,  avg # of iterations =  2.7

     total cpu time spent up to now is        0.6 secs

     total energy              =    -317.31645993 Ry
     Harris-Foulkes estimate   =    -319.39649651 Ry
     estimated scf accuracy    <       2.52554243 Ry

     iteration #  2     ecut=    26.00 Ry     beta=0.70
     Davidson diagonalization with overlap
     ethr =  9.02E-03,  avg # of iterations =  3.0

     total cpu time spent up to now is        0.9 secs

     total energy              =    -318.23773601 Ry
     Harris-Foulkes estimate   =    -318.57337998 Ry
     estimated scf accuracy    <       0.50195081 Ry

     iteration #  3     ecut=    26.00 Ry     beta=0.70
     Davidson diagonalization with overlap
     ethr =  1.79E-03,  avg # of iterations =  2.0

     total cpu time spent up to now is        1.1 secs

     total energy              =    -318.33714401 Ry
     Harris-Foulkes estimate   =    -318.33906159 Ry
     estimated scf accuracy    <       0.00340123 Ry

     iteration #  4     ecut=    26.00 Ry     beta=0.70
     Davidson diagonalization with overlap
     ethr =  1.21E-05,  avg # of iterations =  3.1

     total cpu time spent up to now is        1.4 secs

     total energy              =    -318.33818321 Ry
     Harris-Foulkes estimate   =    -318.33833050 Ry
     estimated scf accuracy    <       0.00023125 Ry

     iteration #  5     ecut=    26.00 Ry     beta=0.70
     Davidson diagonalization with overlap
     ethr =  8.26E-07,  avg # of iterations =  2.5

     total cpu time spent up to now is        1.6 secs

     total energy              =    -318.33823945 Ry
     Harris-Foulkes estimate   =    -318.33823974 Ry
     estimated scf accuracy    <       0.00000067 Ry

     iteration #  6     ecut=    26.00 Ry     beta=0.70
     Davidson diagonalization with overlap
     ethr =  2.41E-09,  avg # of iterations =  4.2

     total cpu time spent up to now is        2.0 secs

     total energy              =    -318.33824059 Ry
     Harris-Foulkes estimate   =    -318.33824084 Ry
     estimated scf accuracy    <       0.00000035 Ry

     iteration #  7     ecut=    26.00 Ry     beta=0.70
     Davidson diagonalization with overlap
     ethr =  1.24E-09,  avg # of iterations =  2.0

     total cpu time spent up to now is        2.2 secs

     End of self-consistent calculation

     Number of k-points >= 100: set verbosity='high' to print the bands.

     highest occupied level (ev):     7.0005

!    total energy              =    -318.33824068 Ry
     Harris-Foulkes estimate   =    -318.33824068 Ry
     estimated scf accuracy    <          4.7E-09 Ry

     The total energy is the sum of the following terms:

     one-electron contribution =    -162.13216700 Ry
     hartree contribution      =      97.69527547 Ry
     xc contribution           =     -86.01801165 Ry
     ewald contribution        =    -167.88333749 Ry

     convergence has been achieved in   7 iterations

     Forces acting on atoms (Ry/au):

     atom    1 type  1   force =     0.00000000    0.00000000    0.00000000
     atom    2 type  1   force =     0.00000000    0.00000000    0.00000000

     Total force =     0.000000     Total SCF correction =     0.000000


     entering subroutine stress ...

          total   stress  (Ry/bohr**3)                   (kbar)     P= -134.26
  -0.00091271  -0.00000000   0.00000000       -134.26     -0.00      0.00
  -0.00000000  -0.00091271   0.00000000         -0.00   -134.26      0.00
  -0.00000000   0.00000000  -0.00091271         -0.00      0.00   -134.26


     Writing output data file sn.alpha.save
 
     init_run     :      0.12s CPU      0.13s WALL (       1 calls)
     electrons    :      1.71s CPU      1.84s WALL (       1 calls)
     forces       :      0.02s CPU      0.02s WALL (       1 calls)
     stress       :      0.05s CPU      0.05s WALL (       1 calls)

     Called by init_run:
     wfcinit      :      0.06s CPU      0.06s WALL (       1 calls)
     potinit      :      0.00s CPU      0.01s WALL (       1 calls)

     Called by electrons:
     c_bands      :      1.50s CPU      1.59s WALL (       7 calls)
     sum_band     :      0.14s CPU      0.16s WALL (       7 calls)
     v_of_rho     :      0.02s CPU      0.02s WALL (       8 calls)
     newd         :      0.03s CPU      0.03s WALL (       8 calls)
     mix_rho      :      0.00s CPU      0.00s WALL (       7 calls)

     Called by c_bands:
     init_us_2    :      0.02s CPU      0.01s WALL (     289 calls)
     cegterg      :      1.31s CPU      1.35s WALL (     119 calls)

     Called by sum_band:
     sum_band:bec :      0.00s CPU      0.00s WALL (     119 calls)
     addusdens    :      0.04s CPU      0.04s WALL (       7 calls)

     Called by *egterg:
     h_psi        :      0.65s CPU      0.67s WALL (     485 calls)
     s_psi        :      0.01s CPU      0.02s WALL (     485 calls)
     g_psi        :      0.01s CPU      0.00s WALL (     349 calls)
     cdiaghg      :      0.56s CPU      0.56s WALL (     468 calls)

     Called by h_psi:
     add_vuspsi   :      0.02s CPU      0.02s WALL (     485 calls)

     General routines
     calbec       :      0.06s CPU      0.05s WALL (     689 calls)
     fft          :      0.00s CPU      0.01s WALL (     128 calls)
     fftw         :      0.61s CPU      0.63s WALL (   13342 calls)
     davcio       :      0.00s CPU      0.01s WALL (      17 calls)
 
     Parallel routines
     fft_scatter  :      0.26s CPU      0.26s WALL (   13470 calls)
 
     PWSCF        :     2.54s CPU        17.27s WALL

 
   This run was terminated on:  23:58:48   6Apr2018            

=------------------------------------------------------------------------------=
   JOB DONE.
=------------------------------------------------------------------------------=
Application 30443819 resources: utime ~3278s, stime ~32s, Rss ~25660, inblocks ~1802012, outblocks ~1609052
