
     Program PWSCF v.5.4.0 starts on  9Apr2018 at 16:37:42 

     This program is part of the open-source Quantum ESPRESSO suite
     for quantum simulation of materials; please cite
         "P. Giannozzi et al., J. Phys.:Condens. Matter 21 395502 (2009);
          URL http://www.quantum-espresso.org", 
     in publications or presentations arising from this work. More details at
     http://www.quantum-espresso.org/quote

     Parallel version (MPI & OpenMP), running on     384 processor cores
     Number of MPI processes:               384
     Threads/MPI process:                     1
     K-points division:     npool     =      24
     R & G space division:  proc/nbgrp/npool/nimage =      16
     Waiting for input...
     Reading input from standard input
     Message from routine read_cards :
     DEPRECATED: no units specified in ATOMIC_POSITIONS card
     Message from routine read_cards :
     ATOMIC_POSITIONS: units set to alat

     Current dimensions of program PWSCF are:
     Max number of different atomic species (ntypx) = 10
     Max number of k-points (npk) =  40000
     Max angular momentum in pseudopotentials (lmaxx) =  3

     Subspace diagonalization in iterative solution of the eigenvalue problem:
     one sub-group per band group will be used
     scalapack distributed-memory algorithm (size of sub-group:  2*  2 procs)

 
     Parallelization info
     --------------------
     sticks:   dense  smooth     PW     G-vecs:    dense   smooth      PW
     Min         118     118     34                 3343     3343     536
     Max         119     119     35                 3344     3344     539
     Sum        1891    1891    559                53497    53497    8609
 


     bravais-lattice index     =            2
     lattice parameter (alat)  =      12.5779  a.u.
     unit-cell volume          =     497.4707 (a.u.)^3
     number of atoms/cell      =            2
     number of atomic types    =            1
     number of electrons       =        28.00
     number of Kohn-Sham states=           18
     kinetic-energy cutoff     =      86.0000  Ry
     charge density cutoff     =     344.0000  Ry
     convergence threshold     =      1.0E-08
     mixing beta               =       0.7000
     number of iterations used =            8  plain     mixing
     Exchange-correlation      =  SLA  PW   PBX  PBC ( 1  4  3  4 0 0)

     celldm(1)=  12.577930  celldm(2)=   0.000000  celldm(3)=   0.000000
     celldm(4)=   0.000000  celldm(5)=   0.000000  celldm(6)=   0.000000

     crystal axes: (cart. coord. in units of alat)
               a(1) = (  -0.500000   0.000000   0.500000 )  
               a(2) = (   0.000000   0.500000   0.500000 )  
               a(3) = (  -0.500000   0.500000   0.000000 )  

     reciprocal axes: (cart. coord. in units 2 pi/alat)
               b(1) = ( -1.000000 -1.000000  1.000000 )  
               b(2) = (  1.000000  1.000000  1.000000 )  
               b(3) = ( -1.000000  1.000000 -1.000000 )  


     PseudoPot. # 1 for Sn read from file:
     ./sn_pbe_v1.4.uspp.F.UPF
     MD5 check sum: 469debedee59599fedebd795477fea03
     Pseudo is Ultrasoft + core correction, Zval = 14.0
     Generated by new atomic code, or converted to UPF format
     Using radial grid of  891 points,  6 beta functions with: 
                l(1) =   0
                l(2) =   0
                l(3) =   1
                l(4) =   1
                l(5) =   2
                l(6) =   2
     Q(r) pseudized with  8 coefficients,  rinner =    1.350   1.350   1.350
                                                       1.350   1.350

     atomic species   valence    mass     pseudopotential
        Sn            14.00   118.71000     Sn( 1.00)

     24 Sym. Ops. (no inversion) found
          (note: 24 additional sym.ops. were found but ignored
           their fractional translations are incommensurate with FFT grid)


   Cartesian axes

     site n.     atom                  positions (alat units)
         1           Sn  tau(   1) = (   0.0000000   0.0000000   0.0000000  )
         2           Sn  tau(   2) = (   0.2500000   0.2500000   0.2500000  )

     number of k points=   408  Marzari-Vanderbilt smearing, width (Ry)=  0.0200

     Number of k-points >= 100: set verbosity='high' to print them.

     Dense  grid:    53497 G-vectors     FFT dimensions: (  54,  54,  54)

     Largest allocated arrays     est. size (Mb)     dimensions
        Kohn-Sham Wavefunctions         0.12 Mb     (     429,   18)
        NL pseudopotentials             0.24 Mb     (     429,   36)
        Each V/rho on FFT grid          0.18 Mb     (   11664)
        Each G-vector array             0.03 Mb     (    3344)
        G-vector shells                 0.00 Mb     (     449)
     Largest temporary arrays     est. size (Mb)     dimensions
        Auxiliary wavefunctions         0.47 Mb     (     429,   72)
        Each subspace H/S matrix        0.02 Mb     (      36,   36)
        Each <psi_i|beta_j> matrix      0.01 Mb     (      36,   18)
        Arrays for rho mixing           1.42 Mb     (   11664,    8)

     Initial potential from superposition of free atoms

     starting charge   25.99991, renormalised to   28.00000
     Starting wfc are   18 randomized atomic wfcs

     total cpu time spent up to now is        0.7 secs

     per-process dynamical memory:    14.9 Mb

     Self-consistent Calculation

     iteration #  1     ecut=    86.00 Ry     beta=0.70
     Davidson diagonalization with overlap
     ethr =  1.00E-02,  avg # of iterations =  3.6

     total cpu time spent up to now is        2.6 secs

     total energy              =    -317.47835585 Ry
     Harris-Foulkes estimate   =    -319.56515668 Ry
     estimated scf accuracy    <       2.54307158 Ry

     iteration #  2     ecut=    86.00 Ry     beta=0.70
     Davidson diagonalization with overlap
     ethr =  9.08E-03,  avg # of iterations =  3.0

     total cpu time spent up to now is        4.5 secs

     total energy              =    -318.40350448 Ry
     Harris-Foulkes estimate   =    -318.73437175 Ry
     estimated scf accuracy    <       0.49390551 Ry

     iteration #  3     ecut=    86.00 Ry     beta=0.70
     Davidson diagonalization with overlap
     ethr =  1.76E-03,  avg # of iterations =  2.0

     total cpu time spent up to now is        6.1 secs

     total energy              =    -318.50151976 Ry
     Harris-Foulkes estimate   =    -318.50296835 Ry
     estimated scf accuracy    <       0.00300038 Ry

     iteration #  4     ecut=    86.00 Ry     beta=0.70
     Davidson diagonalization with overlap
     ethr =  1.07E-05,  avg # of iterations =  3.2

     total cpu time spent up to now is        8.0 secs

     total energy              =    -318.50217608 Ry
     Harris-Foulkes estimate   =    -318.50228218 Ry
     estimated scf accuracy    <       0.00016189 Ry

     iteration #  5     ecut=    86.00 Ry     beta=0.70
     Davidson diagonalization with overlap
     ethr =  5.78E-07,  avg # of iterations =  2.0

     total cpu time spent up to now is        9.4 secs

     total energy              =    -318.50221895 Ry
     Harris-Foulkes estimate   =    -318.50221969 Ry
     estimated scf accuracy    <       0.00000158 Ry

     iteration #  6     ecut=    86.00 Ry     beta=0.70
     Davidson diagonalization with overlap
     ethr =  5.63E-09,  avg # of iterations =  3.0

     total cpu time spent up to now is       11.1 secs

     End of self-consistent calculation

     Number of k-points >= 100: set verbosity='high' to print the bands.

     the Fermi energy is     6.8978 ev

!    total energy              =    -318.50221947 Ry
     Harris-Foulkes estimate   =    -318.50221946 Ry
     estimated scf accuracy    <          8.7E-09 Ry

     The total energy is the sum of the following terms:

     one-electron contribution =    -162.28694482 Ry
     hartree contribution      =      97.62727582 Ry
     xc contribution           =     -85.95949538 Ry
     ewald contribution        =    -167.88333747 Ry
     smearing contrib. (-TS)   =       0.00028239 Ry

     convergence has been achieved in   6 iterations

     Forces acting on atoms (Ry/au):

     atom    1 type  1   force =     0.00000000    0.00000000    0.00000000
     atom    2 type  1   force =     0.00000000    0.00000000    0.00000000

     Total force =     0.000000     Total SCF correction =     0.000000


     entering subroutine stress ...

          total   stress  (Ry/bohr**3)                   (kbar)     P=   -2.02
  -0.00001376  -0.00000000  -0.00000000         -2.02     -0.00     -0.00
  -0.00000000  -0.00001376   0.00000000         -0.00     -2.02      0.00
  -0.00000000   0.00000000  -0.00001376         -0.00      0.00     -2.02


     Writing output data file sn.alpha.save
 
     init_run     :      0.26s CPU      0.27s WALL (       1 calls)
     electrons    :     10.29s CPU     10.48s WALL (       1 calls)
     forces       :      0.06s CPU      0.06s WALL (       1 calls)
     stress       :      0.17s CPU      0.17s WALL (       1 calls)

     Called by init_run:
     wfcinit      :      0.14s CPU      0.14s WALL (       1 calls)
     potinit      :      0.02s CPU      0.02s WALL (       1 calls)

     Called by electrons:
     c_bands      :      9.07s CPU      9.19s WALL (       6 calls)
     sum_band     :      1.02s CPU      1.04s WALL (       6 calls)
     v_of_rho     :      0.04s CPU      0.04s WALL (       7 calls)
     newd         :      0.07s CPU      0.08s WALL (       7 calls)
     mix_rho      :      0.01s CPU      0.00s WALL (       6 calls)

     Called by c_bands:
     init_us_2    :      0.05s CPU      0.03s WALL (     255 calls)
     cegterg      :      2.94s CPU      2.97s WALL (     102 calls)

     Called by sum_band:
     sum_band:bec :      0.00s CPU      0.00s WALL (     102 calls)
     addusdens    :      0.10s CPU      0.11s WALL (       6 calls)

     Called by *egterg:
     h_psi        :      2.00s CPU      2.02s WALL (     417 calls)
     s_psi        :      0.06s CPU      0.05s WALL (     417 calls)
     g_psi        :      0.01s CPU      0.01s WALL (     298 calls)
     cdiaghg      :      0.66s CPU      0.67s WALL (     400 calls)

     Called by h_psi:
     add_vuspsi   :      0.04s CPU      0.05s WALL (     417 calls)

     General routines
     calbec       :      0.11s CPU      0.11s WALL (     604 calls)
     fft          :      0.02s CPU      0.03s WALL (     115 calls)
     fftw         :      2.01s CPU      2.00s WALL (   13400 calls)
     davcio       :      0.00s CPU      0.08s WALL (      17 calls)
 
     Parallel routines
     fft_scatter  :      0.60s CPU      0.58s WALL (   13515 calls)
 
     PWSCF        :  0m12.55s CPU     1m 3.46s WALL

 
   This run was terminated on:  16:38:46   9Apr2018            

=------------------------------------------------------------------------------=
   JOB DONE.
=------------------------------------------------------------------------------=
Application 30463352 resources: utime ~24246s, stime ~78s, Rss ~38412, inblocks ~3631152, outblocks ~4375578
