
     Program PWSCF v.5.4.0 starts on  7Apr2018 at  0: 0:11 

     This program is part of the open-source Quantum ESPRESSO suite
     for quantum simulation of materials; please cite
         "P. Giannozzi et al., J. Phys.:Condens. Matter 21 395502 (2009);
          URL http://www.quantum-espresso.org", 
     in publications or presentations arising from this work. More details at
     http://www.quantum-espresso.org/quote

     Parallel version (MPI & OpenMP), running on     192 processor cores
     Number of MPI processes:               192
     Threads/MPI process:                     1
     K-points division:     npool     =      24
     R & G space division:  proc/nbgrp/npool/nimage =       8
     Waiting for input...
     Reading input from standard input
     Message from routine read_cards :
     DEPRECATED: no units specified in ATOMIC_POSITIONS card
     Message from routine read_cards :
     ATOMIC_POSITIONS: units set to alat

     Current dimensions of program PWSCF are:
     Max number of different atomic species (ntypx) = 10
     Max number of k-points (npk) =  40000
     Max angular momentum in pseudopotentials (lmaxx) =  3

     Subspace diagonalization in iterative solution of the eigenvalue problem:
     one sub-group per band group will be used
     scalapack distributed-memory algorithm (size of sub-group:  2*  2 procs)

 
     Parallelization info
     --------------------
     sticks:   dense  smooth     PW     G-vecs:    dense   smooth      PW
     Min         115     115     36                 2274     2274     401
     Max         116     116     38                 2276     2276     402
     Sum         925     925    295                18197    18197    3215
 


     bravais-lattice index     =            2
     lattice parameter (alat)  =      12.5779  a.u.
     unit-cell volume          =     497.4707 (a.u.)^3
     number of atoms/cell      =            2
     number of atomic types    =            1
     number of electrons       =        28.00
     number of Kohn-Sham states=           14
     kinetic-energy cutoff     =      42.0000  Ry
     charge density cutoff     =     168.0000  Ry
     convergence threshold     =      1.0E-08
     mixing beta               =       0.7000
     number of iterations used =            8  plain     mixing
     Exchange-correlation      =  SLA  PW   PBX  PBC ( 1  4  3  4 0 0)

     celldm(1)=  12.577930  celldm(2)=   0.000000  celldm(3)=   0.000000
     celldm(4)=   0.000000  celldm(5)=   0.000000  celldm(6)=   0.000000

     crystal axes: (cart. coord. in units of alat)
               a(1) = (  -0.500000   0.000000   0.500000 )  
               a(2) = (   0.000000   0.500000   0.500000 )  
               a(3) = (  -0.500000   0.500000   0.000000 )  

     reciprocal axes: (cart. coord. in units 2 pi/alat)
               b(1) = ( -1.000000 -1.000000  1.000000 )  
               b(2) = (  1.000000  1.000000  1.000000 )  
               b(3) = ( -1.000000  1.000000 -1.000000 )  


     PseudoPot. # 1 for Sn read from file:
     ./sn_pbe_v1.4.uspp.F.UPF
     MD5 check sum: 469debedee59599fedebd795477fea03
     Pseudo is Ultrasoft + core correction, Zval = 14.0
     Generated by new atomic code, or converted to UPF format
     Using radial grid of  891 points,  6 beta functions with: 
                l(1) =   0
                l(2) =   0
                l(3) =   1
                l(4) =   1
                l(5) =   2
                l(6) =   2
     Q(r) pseudized with  8 coefficients,  rinner =    1.350   1.350   1.350
                                                       1.350   1.350

     atomic species   valence    mass     pseudopotential
        Sn            14.00   118.71000     Sn( 1.00)

     48 Sym. Ops., with inversion, found (24 have fractional translation)



   Cartesian axes

     site n.     atom                  positions (alat units)
         1           Sn  tau(   1) = (   0.0000000   0.0000000   0.0000000  )
         2           Sn  tau(   2) = (   0.2500000   0.2500000   0.2500000  )

     number of k points=   408

     Number of k-points >= 100: set verbosity='high' to print them.

     Dense  grid:    18197 G-vectors     FFT dimensions: (  40,  40,  40)

     Largest allocated arrays     est. size (Mb)     dimensions
        Kohn-Sham Wavefunctions         0.06 Mb     (     293,   14)
        NL pseudopotentials             0.16 Mb     (     293,   36)
        Each V/rho on FFT grid          0.12 Mb     (    8000)
        Each G-vector array             0.02 Mb     (    2275)
        G-vector shells                 0.00 Mb     (     217)
     Largest temporary arrays     est. size (Mb)     dimensions
        Auxiliary wavefunctions         0.25 Mb     (     293,   56)
        Each subspace H/S matrix        0.01 Mb     (      28,   28)
        Each <psi_i|beta_j> matrix      0.01 Mb     (      36,   14)
        Arrays for rho mixing           0.98 Mb     (    8000,    8)

     Initial potential from superposition of free atoms

     starting charge   25.99991, renormalised to   28.00000
     Starting wfc are   18 randomized atomic wfcs

     total cpu time spent up to now is        0.3 secs

     per-process dynamical memory:    12.1 Mb

     Self-consistent Calculation

     iteration #  1     ecut=    42.00 Ry     beta=0.70
     Davidson diagonalization with overlap
     ethr =  1.00E-02,  avg # of iterations =  2.6

     total cpu time spent up to now is        0.7 secs

     total energy              =    -317.47245025 Ry
     Harris-Foulkes estimate   =    -319.53693159 Ry
     estimated scf accuracy    <       2.51532535 Ry

     iteration #  2     ecut=    42.00 Ry     beta=0.70
     Davidson diagonalization with overlap
     ethr =  8.98E-03,  avg # of iterations =  3.0

     total cpu time spent up to now is        1.0 secs

     total energy              =    -318.38173568 Ry
     Harris-Foulkes estimate   =    -318.70047759 Ry
     estimated scf accuracy    <       0.47465283 Ry

     iteration #  3     ecut=    42.00 Ry     beta=0.70
     Davidson diagonalization with overlap
     ethr =  1.70E-03,  avg # of iterations =  2.0

     total cpu time spent up to now is        1.4 secs

     total energy              =    -318.47697317 Ry
     Harris-Foulkes estimate   =    -318.47855077 Ry
     estimated scf accuracy    <       0.00289777 Ry

     iteration #  4     ecut=    42.00 Ry     beta=0.70
     Davidson diagonalization with overlap
     ethr =  1.03E-05,  avg # of iterations =  2.9

     total cpu time spent up to now is        1.7 secs

     total energy              =    -318.47786489 Ry
     Harris-Foulkes estimate   =    -318.47798288 Ry
     estimated scf accuracy    <       0.00017411 Ry

     iteration #  5     ecut=    42.00 Ry     beta=0.70
     Davidson diagonalization with overlap
     ethr =  6.22E-07,  avg # of iterations =  3.0

     total cpu time spent up to now is        2.1 secs

     total energy              =    -318.47791850 Ry
     Harris-Foulkes estimate   =    -318.47791923 Ry
     estimated scf accuracy    <       0.00000149 Ry

     iteration #  6     ecut=    42.00 Ry     beta=0.70
     Davidson diagonalization with overlap
     ethr =  5.32E-09,  avg # of iterations =  4.0

     total cpu time spent up to now is        2.6 secs

     total energy              =    -318.47791931 Ry
     Harris-Foulkes estimate   =    -318.47791936 Ry
     estimated scf accuracy    <       0.00000007 Ry

     iteration #  7     ecut=    42.00 Ry     beta=0.70
     Davidson diagonalization with overlap
     ethr =  2.49E-10,  avg # of iterations =  3.1

     total cpu time spent up to now is        3.0 secs

     End of self-consistent calculation

     Number of k-points >= 100: set verbosity='high' to print the bands.

     highest occupied level (ev):     6.9847

!    total energy              =    -318.47791934 Ry
     Harris-Foulkes estimate   =    -318.47791934 Ry
     estimated scf accuracy    <          2.6E-09 Ry

     The total energy is the sum of the following terms:

     one-electron contribution =    -162.26703072 Ry
     hartree contribution      =      97.63591206 Ry
     xc contribution           =     -85.96346319 Ry
     ewald contribution        =    -167.88333749 Ry

     convergence has been achieved in   7 iterations

     Forces acting on atoms (Ry/au):

     atom    1 type  1   force =     0.00000000    0.00000000    0.00000000
     atom    2 type  1   force =     0.00000000    0.00000000    0.00000000

     Total force =     0.000000     Total SCF correction =     0.000000


     entering subroutine stress ...

          total   stress  (Ry/bohr**3)                   (kbar)     P=   -6.53
  -0.00004441   0.00000000  -0.00000000         -6.53      0.00     -0.00
  -0.00000000  -0.00004441  -0.00000000         -0.00     -6.53     -0.00
  -0.00000000   0.00000000  -0.00004441         -0.00      0.00     -6.53


     Writing output data file sn.alpha.save
 
     init_run     :      0.19s CPU      0.19s WALL (       1 calls)
     electrons    :      2.62s CPU      2.74s WALL (       1 calls)
     forces       :      0.03s CPU      0.03s WALL (       1 calls)
     stress       :      0.10s CPU      0.10s WALL (       1 calls)

     Called by init_run:
     wfcinit      :      0.09s CPU      0.09s WALL (       1 calls)
     potinit      :      0.01s CPU      0.01s WALL (       1 calls)

     Called by electrons:
     c_bands      :      2.23s CPU      2.28s WALL (       7 calls)
     sum_band     :      0.28s CPU      0.30s WALL (       7 calls)
     v_of_rho     :      0.03s CPU      0.03s WALL (       8 calls)
     newd         :      0.07s CPU      0.06s WALL (       8 calls)
     mix_rho      :      0.00s CPU      0.00s WALL (       7 calls)

     Called by c_bands:
     init_us_2    :      0.04s CPU      0.02s WALL (     289 calls)
     cegterg      :      1.89s CPU      1.92s WALL (     119 calls)

     Called by sum_band:
     sum_band:bec :      0.00s CPU      0.00s WALL (     119 calls)
     addusdens    :      0.08s CPU      0.09s WALL (       7 calls)

     Called by *egterg:
     h_psi        :      0.99s CPU      1.08s WALL (     529 calls)
     s_psi        :      0.03s CPU      0.04s WALL (     529 calls)
     g_psi        :      0.03s CPU      0.01s WALL (     393 calls)
     cdiaghg      :      0.71s CPU      0.65s WALL (     512 calls)

     Called by h_psi:
     add_vuspsi   :      0.04s CPU      0.04s WALL (     529 calls)

     General routines
     calbec       :      0.08s CPU      0.07s WALL (     733 calls)
     fft          :      0.01s CPU      0.02s WALL (     128 calls)
     fftw         :      0.93s CPU      1.02s WALL (   13124 calls)
     davcio       :      0.00s CPU      0.01s WALL (      17 calls)
 
     Parallel routines
     fft_scatter  :      0.27s CPU      0.28s WALL (   13252 calls)
 
     PWSCF        :     3.43s CPU        18.13s WALL

 
   This run was terminated on:   0: 0:29   7Apr2018            

=------------------------------------------------------------------------------=
   JOB DONE.
=------------------------------------------------------------------------------=
Application 30443827 resources: utime ~3457s, stime ~33s, Rss ~32368, inblocks ~1802462, outblocks ~1818010
