
     Program PWSCF v.5.4.0 starts on  7Apr2018 at  0: 3: 2 

     This program is part of the open-source Quantum ESPRESSO suite
     for quantum simulation of materials; please cite
         "P. Giannozzi et al., J. Phys.:Condens. Matter 21 395502 (2009);
          URL http://www.quantum-espresso.org", 
     in publications or presentations arising from this work. More details at
     http://www.quantum-espresso.org/quote

     Parallel version (MPI & OpenMP), running on     192 processor cores
     Number of MPI processes:               192
     Threads/MPI process:                     1
     K-points division:     npool     =      24
     R & G space division:  proc/nbgrp/npool/nimage =       8
     Waiting for input...
     Reading input from standard input
     Message from routine read_cards :
     DEPRECATED: no units specified in ATOMIC_POSITIONS card
     Message from routine read_cards :
     ATOMIC_POSITIONS: units set to alat

     Current dimensions of program PWSCF are:
     Max number of different atomic species (ntypx) = 10
     Max number of k-points (npk) =  40000
     Max angular momentum in pseudopotentials (lmaxx) =  3

     Subspace diagonalization in iterative solution of the eigenvalue problem:
     one sub-group per band group will be used
     scalapack distributed-memory algorithm (size of sub-group:  2*  2 procs)

 
     Parallelization info
     --------------------
     sticks:   dense  smooth     PW     G-vecs:    dense   smooth      PW
     Min         177     177     54                 4480     4480     744
     Max         178     178     55                 4485     4485     747
     Sum        1417    1417    433                35845    35845    5961
 


     bravais-lattice index     =            2
     lattice parameter (alat)  =      12.5779  a.u.
     unit-cell volume          =     497.4707 (a.u.)^3
     number of atoms/cell      =            2
     number of atomic types    =            1
     number of electrons       =        28.00
     number of Kohn-Sham states=           14
     kinetic-energy cutoff     =      66.0000  Ry
     charge density cutoff     =     264.0000  Ry
     convergence threshold     =      1.0E-08
     mixing beta               =       0.7000
     number of iterations used =            8  plain     mixing
     Exchange-correlation      =  SLA  PW   PBX  PBC ( 1  4  3  4 0 0)

     celldm(1)=  12.577930  celldm(2)=   0.000000  celldm(3)=   0.000000
     celldm(4)=   0.000000  celldm(5)=   0.000000  celldm(6)=   0.000000

     crystal axes: (cart. coord. in units of alat)
               a(1) = (  -0.500000   0.000000   0.500000 )  
               a(2) = (   0.000000   0.500000   0.500000 )  
               a(3) = (  -0.500000   0.500000   0.000000 )  

     reciprocal axes: (cart. coord. in units 2 pi/alat)
               b(1) = ( -1.000000 -1.000000  1.000000 )  
               b(2) = (  1.000000  1.000000  1.000000 )  
               b(3) = ( -1.000000  1.000000 -1.000000 )  


     PseudoPot. # 1 for Sn read from file:
     ./sn_pbe_v1.4.uspp.F.UPF
     MD5 check sum: 469debedee59599fedebd795477fea03
     Pseudo is Ultrasoft + core correction, Zval = 14.0
     Generated by new atomic code, or converted to UPF format
     Using radial grid of  891 points,  6 beta functions with: 
                l(1) =   0
                l(2) =   0
                l(3) =   1
                l(4) =   1
                l(5) =   2
                l(6) =   2
     Q(r) pseudized with  8 coefficients,  rinner =    1.350   1.350   1.350
                                                       1.350   1.350

     atomic species   valence    mass     pseudopotential
        Sn            14.00   118.71000     Sn( 1.00)

     24 Sym. Ops. (no inversion) found
          (note: 24 additional sym.ops. were found but ignored
           their fractional translations are incommensurate with FFT grid)


   Cartesian axes

     site n.     atom                  positions (alat units)
         1           Sn  tau(   1) = (   0.0000000   0.0000000   0.0000000  )
         2           Sn  tau(   2) = (   0.2500000   0.2500000   0.2500000  )

     number of k points=   408

     Number of k-points >= 100: set verbosity='high' to print them.

     Dense  grid:    35845 G-vectors     FFT dimensions: (  45,  45,  45)

     Largest allocated arrays     est. size (Mb)     dimensions
        Kohn-Sham Wavefunctions         0.12 Mb     (     579,   14)
        NL pseudopotentials             0.32 Mb     (     579,   36)
        Each V/rho on FFT grid          0.19 Mb     (   12150)
        Each G-vector array             0.03 Mb     (    4485)
        G-vector shells                 0.00 Mb     (     353)
     Largest temporary arrays     est. size (Mb)     dimensions
        Auxiliary wavefunctions         0.49 Mb     (     579,   56)
        Each subspace H/S matrix        0.01 Mb     (      28,   28)
        Each <psi_i|beta_j> matrix      0.01 Mb     (      36,   14)
        Arrays for rho mixing           1.48 Mb     (   12150,    8)

     Check: negative/imaginary core charge=   -0.000003    0.000000

     Initial potential from superposition of free atoms

     starting charge   25.99991, renormalised to   28.00000
     Starting wfc are   18 randomized atomic wfcs

     total cpu time spent up to now is        0.4 secs

     per-process dynamical memory:    15.2 Mb

     Self-consistent Calculation

     iteration #  1     ecut=    66.00 Ry     beta=0.70
     Davidson diagonalization with overlap
     ethr =  1.00E-02,  avg # of iterations =  2.6

     total cpu time spent up to now is        1.0 secs

     total energy              =    -317.49387774 Ry
     Harris-Foulkes estimate   =    -319.55816376 Ry
     estimated scf accuracy    <       2.51474255 Ry

     iteration #  2     ecut=    66.00 Ry     beta=0.70
     Davidson diagonalization with overlap
     ethr =  8.98E-03,  avg # of iterations =  3.0

     total cpu time spent up to now is        1.6 secs

     total energy              =    -318.40262998 Ry
     Harris-Foulkes estimate   =    -318.72068675 Ry
     estimated scf accuracy    <       0.47340757 Ry

     iteration #  3     ecut=    66.00 Ry     beta=0.70
     Davidson diagonalization with overlap
     ethr =  1.69E-03,  avg # of iterations =  2.0

     total cpu time spent up to now is        2.1 secs

     total energy              =    -318.49764587 Ry
     Harris-Foulkes estimate   =    -318.49920671 Ry
     estimated scf accuracy    <       0.00286736 Ry

     iteration #  4     ecut=    66.00 Ry     beta=0.70
     Davidson diagonalization with overlap
     ethr =  1.02E-05,  avg # of iterations =  3.0

     total cpu time spent up to now is        2.7 secs

     total energy              =    -318.49852794 Ry
     Harris-Foulkes estimate   =    -318.49864540 Ry
     estimated scf accuracy    <       0.00017391 Ry

     iteration #  5     ecut=    66.00 Ry     beta=0.70
     Davidson diagonalization with overlap
     ethr =  6.21E-07,  avg # of iterations =  3.0

     total cpu time spent up to now is        3.2 secs

     total energy              =    -318.49858157 Ry
     Harris-Foulkes estimate   =    -318.49858241 Ry
     estimated scf accuracy    <       0.00000164 Ry

     iteration #  6     ecut=    66.00 Ry     beta=0.70
     Davidson diagonalization with overlap
     ethr =  5.84E-09,  avg # of iterations =  3.9

     total cpu time spent up to now is        3.9 secs

     total energy              =    -318.49858239 Ry
     Harris-Foulkes estimate   =    -318.49858243 Ry
     estimated scf accuracy    <       0.00000006 Ry

     iteration #  7     ecut=    66.00 Ry     beta=0.70
     Davidson diagonalization with overlap
     ethr =  2.28E-10,  avg # of iterations =  3.1

     total cpu time spent up to now is        4.6 secs

     End of self-consistent calculation

     Number of k-points >= 100: set verbosity='high' to print the bands.

     highest occupied level (ev):     6.9858

!    total energy              =    -318.49858242 Ry
     Harris-Foulkes estimate   =    -318.49858242 Ry
     estimated scf accuracy    <          2.8E-09 Ry

     The total energy is the sum of the following terms:

     one-electron contribution =    -162.28613724 Ry
     hartree contribution      =      97.63072959 Ry
     xc contribution           =     -85.95983729 Ry
     ewald contribution        =    -167.88333748 Ry

     convergence has been achieved in   7 iterations

     Forces acting on atoms (Ry/au):

     atom    1 type  1   force =    -0.00000000   -0.00000000   -0.00000000
     atom    2 type  1   force =     0.00000000   -0.00000000    0.00000000

     Total force =     0.000000     Total SCF correction =     0.000000


     entering subroutine stress ...

          total   stress  (Ry/bohr**3)                   (kbar)     P=   -2.40
  -0.00001633  -0.00000000  -0.00000000         -2.40     -0.00     -0.00
  -0.00000000  -0.00001633  -0.00000000         -0.00     -2.40     -0.00
  -0.00000000  -0.00000000  -0.00001633         -0.00     -0.00     -2.40


     Writing output data file sn.alpha.save
 
     init_run     :      0.28s CPU      0.30s WALL (       1 calls)
     electrons    :      4.05s CPU      4.17s WALL (       1 calls)
     forces       :      0.06s CPU      0.06s WALL (       1 calls)
     stress       :      0.18s CPU      0.18s WALL (       1 calls)

     Called by init_run:
     wfcinit      :      0.14s CPU      0.14s WALL (       1 calls)
     potinit      :      0.01s CPU      0.01s WALL (       1 calls)

     Called by electrons:
     c_bands      :      3.37s CPU      3.44s WALL (       7 calls)
     sum_band     :      0.50s CPU      0.53s WALL (       7 calls)
     v_of_rho     :      0.05s CPU      0.05s WALL (       8 calls)
     newd         :      0.11s CPU      0.12s WALL (       8 calls)
     mix_rho      :      0.01s CPU      0.01s WALL (       7 calls)

     Called by c_bands:
     init_us_2    :      0.04s CPU      0.05s WALL (     289 calls)
     cegterg      :      2.94s CPU      2.95s WALL (     119 calls)

     Called by sum_band:
     sum_band:bec :      0.00s CPU      0.00s WALL (     119 calls)
     addusdens    :      0.16s CPU      0.17s WALL (       7 calls)

     Called by *egterg:
     h_psi        :      1.86s CPU      1.89s WALL (     523 calls)
     s_psi        :      0.05s CPU      0.07s WALL (     523 calls)
     g_psi        :      0.02s CPU      0.02s WALL (     387 calls)
     cdiaghg      :      0.73s CPU      0.66s WALL (     506 calls)

     Called by h_psi:
     add_vuspsi   :      0.07s CPU      0.08s WALL (     523 calls)

     General routines
     calbec       :      0.16s CPU      0.14s WALL (     727 calls)
     fft          :      0.02s CPU      0.03s WALL (     128 calls)
     fftw         :      1.69s CPU      1.76s WALL (   13118 calls)
     davcio       :      0.00s CPU      0.01s WALL (      17 calls)
 
     Parallel routines
     fft_scatter  :      0.34s CPU      0.42s WALL (   13246 calls)
 
     PWSCF        :     5.84s CPU        17.87s WALL

 
   This run was terminated on:   0: 3:20   7Apr2018            

=------------------------------------------------------------------------------=
   JOB DONE.
=------------------------------------------------------------------------------=
Application 30443847 resources: utime ~3396s, stime ~36s, Rss ~42408, inblocks ~1802329, outblocks ~2220345
