
     Program PWSCF v.5.4.0 starts on  9Apr2018 at 16:25:49 

     This program is part of the open-source Quantum ESPRESSO suite
     for quantum simulation of materials; please cite
         "P. Giannozzi et al., J. Phys.:Condens. Matter 21 395502 (2009);
          URL http://www.quantum-espresso.org", 
     in publications or presentations arising from this work. More details at
     http://www.quantum-espresso.org/quote

     Parallel version (MPI & OpenMP), running on     384 processor cores
     Number of MPI processes:               384
     Threads/MPI process:                     1
     K-points division:     npool     =      24
     R & G space division:  proc/nbgrp/npool/nimage =      16
     Waiting for input...
     Reading input from standard input
     Message from routine read_cards :
     DEPRECATED: no units specified in ATOMIC_POSITIONS card
     Message from routine read_cards :
     ATOMIC_POSITIONS: units set to alat

     Current dimensions of program PWSCF are:
     Max number of different atomic species (ntypx) = 10
     Max number of k-points (npk) =  40000
     Max angular momentum in pseudopotentials (lmaxx) =  3

     Subspace diagonalization in iterative solution of the eigenvalue problem:
     one sub-group per band group will be used
     scalapack distributed-memory algorithm (size of sub-group:  2*  2 procs)

 
     Parallelization info
     --------------------
     sticks:   dense  smooth     PW     G-vecs:    dense   smooth      PW
     Min          40      40     13                  686      686     129
     Max          41      41     14                  690      690     132
     Sum         649     649    211                11017    11017    2085
 


     bravais-lattice index     =            2
     lattice parameter (alat)  =      12.5779  a.u.
     unit-cell volume          =     497.4707 (a.u.)^3
     number of atoms/cell      =            2
     number of atomic types    =            1
     number of electrons       =        28.00
     number of Kohn-Sham states=           18
     kinetic-energy cutoff     =      30.0000  Ry
     charge density cutoff     =     120.0000  Ry
     convergence threshold     =      1.0E-08
     mixing beta               =       0.7000
     number of iterations used =            8  plain     mixing
     Exchange-correlation      =  SLA  PW   PBX  PBC ( 1  4  3  4 0 0)

     celldm(1)=  12.577930  celldm(2)=   0.000000  celldm(3)=   0.000000
     celldm(4)=   0.000000  celldm(5)=   0.000000  celldm(6)=   0.000000

     crystal axes: (cart. coord. in units of alat)
               a(1) = (  -0.500000   0.000000   0.500000 )  
               a(2) = (   0.000000   0.500000   0.500000 )  
               a(3) = (  -0.500000   0.500000   0.000000 )  

     reciprocal axes: (cart. coord. in units 2 pi/alat)
               b(1) = ( -1.000000 -1.000000  1.000000 )  
               b(2) = (  1.000000  1.000000  1.000000 )  
               b(3) = ( -1.000000  1.000000 -1.000000 )  


     PseudoPot. # 1 for Sn read from file:
     ./sn_pbe_v1.4.uspp.F.UPF
     MD5 check sum: 469debedee59599fedebd795477fea03
     Pseudo is Ultrasoft + core correction, Zval = 14.0
     Generated by new atomic code, or converted to UPF format
     Using radial grid of  891 points,  6 beta functions with: 
                l(1) =   0
                l(2) =   0
                l(3) =   1
                l(4) =   1
                l(5) =   2
                l(6) =   2
     Q(r) pseudized with  8 coefficients,  rinner =    1.350   1.350   1.350
                                                       1.350   1.350

     atomic species   valence    mass     pseudopotential
        Sn            14.00   118.71000     Sn( 1.00)

     48 Sym. Ops., with inversion, found (24 have fractional translation)



   Cartesian axes

     site n.     atom                  positions (alat units)
         1           Sn  tau(   1) = (   0.0000000   0.0000000   0.0000000  )
         2           Sn  tau(   2) = (   0.2500000   0.2500000   0.2500000  )

     number of k points=   408  Marzari-Vanderbilt smearing, width (Ry)=  0.0200

     Number of k-points >= 100: set verbosity='high' to print them.

     Dense  grid:    11017 G-vectors     FFT dimensions: (  32,  32,  32)

     Largest allocated arrays     est. size (Mb)     dimensions
        Kohn-Sham Wavefunctions         0.03 Mb     (      93,   18)
        NL pseudopotentials             0.05 Mb     (      93,   36)
        Each V/rho on FFT grid          0.03 Mb     (    2048)
        Each G-vector array             0.01 Mb     (     687)
        G-vector shells                 0.00 Mb     (     155)
     Largest temporary arrays     est. size (Mb)     dimensions
        Auxiliary wavefunctions         0.10 Mb     (      93,   72)
        Each subspace H/S matrix        0.02 Mb     (      36,   36)
        Each <psi_i|beta_j> matrix      0.01 Mb     (      36,   18)
        Arrays for rho mixing           0.25 Mb     (    2048,    8)

     Check: negative/imaginary core charge=   -0.000042    0.000000

     Initial potential from superposition of free atoms

     starting charge   25.99991, renormalised to   28.00000
     Starting wfc are   18 randomized atomic wfcs

     total cpu time spent up to now is        0.5 secs

     per-process dynamical memory:    10.1 Mb

     Self-consistent Calculation

     iteration #  1     ecut=    30.00 Ry     beta=0.70
     Davidson diagonalization with overlap
     ethr =  1.00E-02,  avg # of iterations =  3.6

     total cpu time spent up to now is        1.7 secs

     total energy              =    -317.40376487 Ry
     Harris-Foulkes estimate   =    -319.48896360 Ry
     estimated scf accuracy    <       2.54352300 Ry

     iteration #  2     ecut=    30.00 Ry     beta=0.70
     Davidson diagonalization with overlap
     ethr =  9.08E-03,  avg # of iterations =  3.0

     total cpu time spent up to now is        2.7 secs

     total energy              =    -318.32888988 Ry
     Harris-Foulkes estimate   =    -318.66358692 Ry
     estimated scf accuracy    <       0.50038233 Ry

     iteration #  3     ecut=    30.00 Ry     beta=0.70
     Davidson diagonalization with overlap
     ethr =  1.79E-03,  avg # of iterations =  2.0

     total cpu time spent up to now is        3.6 secs

     total energy              =    -318.42785919 Ry
     Harris-Foulkes estimate   =    -318.42938013 Ry
     estimated scf accuracy    <       0.00310433 Ry

     iteration #  4     ecut=    30.00 Ry     beta=0.70
     Davidson diagonalization with overlap
     ethr =  1.11E-05,  avg # of iterations =  3.2

     total cpu time spent up to now is        4.8 secs

     total energy              =    -318.42850798 Ry
     Harris-Foulkes estimate   =    -318.42862043 Ry
     estimated scf accuracy    <       0.00016650 Ry

     iteration #  5     ecut=    30.00 Ry     beta=0.70
     Davidson diagonalization with overlap
     ethr =  5.95E-07,  avg # of iterations =  2.0

     total cpu time spent up to now is        5.7 secs

     total energy              =    -318.42855405 Ry
     Harris-Foulkes estimate   =    -318.42855554 Ry
     estimated scf accuracy    <       0.00000258 Ry

     iteration #  6     ecut=    30.00 Ry     beta=0.70
     Davidson diagonalization with overlap
     ethr =  9.21E-09,  avg # of iterations =  3.0

     total cpu time spent up to now is        6.9 secs

     End of self-consistent calculation

     Number of k-points >= 100: set verbosity='high' to print the bands.

     the Fermi energy is     6.8995 ev

!    total energy              =    -318.42855481 Ry
     Harris-Foulkes estimate   =    -318.42855480 Ry
     estimated scf accuracy    <          1.0E-08 Ry

     The total energy is the sum of the following terms:

     one-electron contribution =    -162.21353891 Ry
     hartree contribution      =      97.64052073 Ry
     xc contribution           =     -85.97248147 Ry
     ewald contribution        =    -167.88333750 Ry
     smearing contrib. (-TS)   =       0.00028235 Ry

     convergence has been achieved in   6 iterations

     Forces acting on atoms (Ry/au):

     atom    1 type  1   force =     0.00000000    0.00000000   -0.00000000
     atom    2 type  1   force =    -0.00000000   -0.00000000    0.00000000

     Total force =     0.000000     Total SCF correction =     0.000000


     entering subroutine stress ...

          total   stress  (Ry/bohr**3)                   (kbar)     P= -101.42
  -0.00068947   0.00000000   0.00000000       -101.42      0.00      0.00
   0.00000000  -0.00068947   0.00000000          0.00   -101.42      0.00
   0.00000000   0.00000000  -0.00068947          0.00      0.00   -101.42


     Writing output data file sn.alpha.save
 
     init_run     :      0.09s CPU      0.12s WALL (       1 calls)
     electrons    :      6.32s CPU      6.50s WALL (       1 calls)
     forces       :      0.03s CPU      0.03s WALL (       1 calls)
     stress       :      0.04s CPU      0.04s WALL (       1 calls)

     Called by init_run:
     wfcinit      :      0.05s CPU      0.05s WALL (       1 calls)
     potinit      :      0.01s CPU      0.01s WALL (       1 calls)

     Called by electrons:
     c_bands      :      5.79s CPU      5.88s WALL (       6 calls)
     sum_band     :      0.48s CPU      0.48s WALL (       6 calls)
     v_of_rho     :      0.01s CPU      0.01s WALL (       7 calls)
     newd         :      0.02s CPU      0.02s WALL (       7 calls)
     mix_rho      :      0.00s CPU      0.00s WALL (       6 calls)

     Called by c_bands:
     init_us_2    :      0.02s CPU      0.01s WALL (     255 calls)
     cegterg      :      1.22s CPU      1.23s WALL (     102 calls)

     Called by sum_band:
     sum_band:bec :      0.00s CPU      0.00s WALL (     102 calls)
     addusdens    :      0.02s CPU      0.02s WALL (       6 calls)

     Called by *egterg:
     h_psi        :      0.46s CPU      0.51s WALL (     409 calls)
     s_psi        :      0.01s CPU      0.01s WALL (     409 calls)
     g_psi        :      0.00s CPU      0.00s WALL (     290 calls)
     cdiaghg      :      0.67s CPU      0.64s WALL (     392 calls)

     Called by h_psi:
     add_vuspsi   :      0.03s CPU      0.02s WALL (     409 calls)

     General routines
     calbec       :      0.04s CPU      0.04s WALL (     596 calls)
     fft          :      0.01s CPU      0.01s WALL (     115 calls)
     fftw         :      0.43s CPU      0.49s WALL (   13310 calls)
     davcio       :      0.00s CPU      0.01s WALL (      17 calls)
 
     Parallel routines
     fft_scatter  :      0.25s CPU      0.28s WALL (   13425 calls)
 
     PWSCF        :     7.87s CPU        32.08s WALL

 
   This run was terminated on:  16:26:21   9Apr2018            

=------------------------------------------------------------------------------=
   JOB DONE.
=------------------------------------------------------------------------------=
Application 30463123 resources: utime ~12284s, stime ~63s, Rss ~24228, inblocks ~3616268, outblocks ~3131771
