
     Program PWSCF v.5.4.0 starts on  9Apr2018 at 16:32:37 

     This program is part of the open-source Quantum ESPRESSO suite
     for quantum simulation of materials; please cite
         "P. Giannozzi et al., J. Phys.:Condens. Matter 21 395502 (2009);
          URL http://www.quantum-espresso.org", 
     in publications or presentations arising from this work. More details at
     http://www.quantum-espresso.org/quote

     Parallel version (MPI & OpenMP), running on     384 processor cores
     Number of MPI processes:               384
     Threads/MPI process:                     1
     K-points division:     npool     =      24
     R & G space division:  proc/nbgrp/npool/nimage =      16
     Waiting for input...
     Reading input from standard input
     Message from routine read_cards :
     DEPRECATED: no units specified in ATOMIC_POSITIONS card
     Message from routine read_cards :
     ATOMIC_POSITIONS: units set to alat

     Current dimensions of program PWSCF are:
     Max number of different atomic species (ntypx) = 10
     Max number of k-points (npk) =  40000
     Max angular momentum in pseudopotentials (lmaxx) =  3

     Subspace diagonalization in iterative solution of the eigenvalue problem:
     one sub-group per band group will be used
     scalapack distributed-memory algorithm (size of sub-group:  2*  2 procs)

 
     Parallelization info
     --------------------
     sticks:   dense  smooth     PW     G-vecs:    dense   smooth      PW
     Min          84      84     26                 2046     2046     344
     Max          86      86     27                 2048     2048     346
     Sum        1357    1357    421                32743    32743    5521
 


     bravais-lattice index     =            2
     lattice parameter (alat)  =      12.5779  a.u.
     unit-cell volume          =     497.4707 (a.u.)^3
     number of atoms/cell      =            2
     number of atomic types    =            1
     number of electrons       =        28.00
     number of Kohn-Sham states=           18
     kinetic-energy cutoff     =      62.0000  Ry
     charge density cutoff     =     248.0000  Ry
     convergence threshold     =      1.0E-08
     mixing beta               =       0.7000
     number of iterations used =            8  plain     mixing
     Exchange-correlation      =  SLA  PW   PBX  PBC ( 1  4  3  4 0 0)

     celldm(1)=  12.577930  celldm(2)=   0.000000  celldm(3)=   0.000000
     celldm(4)=   0.000000  celldm(5)=   0.000000  celldm(6)=   0.000000

     crystal axes: (cart. coord. in units of alat)
               a(1) = (  -0.500000   0.000000   0.500000 )  
               a(2) = (   0.000000   0.500000   0.500000 )  
               a(3) = (  -0.500000   0.500000   0.000000 )  

     reciprocal axes: (cart. coord. in units 2 pi/alat)
               b(1) = ( -1.000000 -1.000000  1.000000 )  
               b(2) = (  1.000000  1.000000  1.000000 )  
               b(3) = ( -1.000000  1.000000 -1.000000 )  


     PseudoPot. # 1 for Sn read from file:
     ./sn_pbe_v1.4.uspp.F.UPF
     MD5 check sum: 469debedee59599fedebd795477fea03
     Pseudo is Ultrasoft + core correction, Zval = 14.0
     Generated by new atomic code, or converted to UPF format
     Using radial grid of  891 points,  6 beta functions with: 
                l(1) =   0
                l(2) =   0
                l(3) =   1
                l(4) =   1
                l(5) =   2
                l(6) =   2
     Q(r) pseudized with  8 coefficients,  rinner =    1.350   1.350   1.350
                                                       1.350   1.350

     atomic species   valence    mass     pseudopotential
        Sn            14.00   118.71000     Sn( 1.00)

     24 Sym. Ops. (no inversion) found
          (note: 24 additional sym.ops. were found but ignored
           their fractional translations are incommensurate with FFT grid)


   Cartesian axes

     site n.     atom                  positions (alat units)
         1           Sn  tau(   1) = (   0.0000000   0.0000000   0.0000000  )
         2           Sn  tau(   2) = (   0.2500000   0.2500000   0.2500000  )

     number of k points=   408  Marzari-Vanderbilt smearing, width (Ry)=  0.0200

     Number of k-points >= 100: set verbosity='high' to print them.

     Dense  grid:    32743 G-vectors     FFT dimensions: (  45,  45,  45)

     Largest allocated arrays     est. size (Mb)     dimensions
        Kohn-Sham Wavefunctions         0.08 Mb     (     275,   18)
        NL pseudopotentials             0.15 Mb     (     275,   36)
        Each V/rho on FFT grid          0.09 Mb     (    6075)
        Each G-vector array             0.02 Mb     (    2047)
        G-vector shells                 0.00 Mb     (     316)
     Largest temporary arrays     est. size (Mb)     dimensions
        Auxiliary wavefunctions         0.30 Mb     (     275,   72)
        Each subspace H/S matrix        0.02 Mb     (      36,   36)
        Each <psi_i|beta_j> matrix      0.01 Mb     (      36,   18)
        Arrays for rho mixing           0.74 Mb     (    6075,    8)

     Check: negative/imaginary core charge=   -0.000002    0.000000

     Initial potential from superposition of free atoms

     starting charge   25.99991, renormalised to   28.00000
     Starting wfc are   18 randomized atomic wfcs

     total cpu time spent up to now is        0.8 secs

     per-process dynamical memory:    12.7 Mb

     Self-consistent Calculation

     iteration #  1     ecut=    62.00 Ry     beta=0.70
     Davidson diagonalization with overlap
     ethr =  1.00E-02,  avg # of iterations =  3.6

     total cpu time spent up to now is        2.3 secs

     total energy              =    -317.47442427 Ry
     Harris-Foulkes estimate   =    -319.56138634 Ry
     estimated scf accuracy    <       2.54328100 Ry

     iteration #  2     ecut=    62.00 Ry     beta=0.70
     Davidson diagonalization with overlap
     ethr =  9.08E-03,  avg # of iterations =  3.0

     total cpu time spent up to now is        3.6 secs

     total energy              =    -318.39970333 Ry
     Harris-Foulkes estimate   =    -318.73076839 Ry
     estimated scf accuracy    <       0.49424368 Ry

     iteration #  3     ecut=    62.00 Ry     beta=0.70
     Davidson diagonalization with overlap
     ethr =  1.77E-03,  avg # of iterations =  2.0

     total cpu time spent up to now is        4.5 secs

     total energy              =    -318.49776347 Ry
     Harris-Foulkes estimate   =    -318.49921357 Ry
     estimated scf accuracy    <       0.00300430 Ry

     iteration #  4     ecut=    62.00 Ry     beta=0.70
     Davidson diagonalization with overlap
     ethr =  1.07E-05,  avg # of iterations =  3.2

     total cpu time spent up to now is        5.6 secs

     total energy              =    -318.49841663 Ry
     Harris-Foulkes estimate   =    -318.49852294 Ry
     estimated scf accuracy    <       0.00016172 Ry

     iteration #  5     ecut=    62.00 Ry     beta=0.70
     Davidson diagonalization with overlap
     ethr =  5.78E-07,  avg # of iterations =  2.0

     total cpu time spent up to now is        6.3 secs

     total energy              =    -318.49845964 Ry
     Harris-Foulkes estimate   =    -318.49846042 Ry
     estimated scf accuracy    <       0.00000163 Ry

     iteration #  6     ecut=    62.00 Ry     beta=0.70
     Davidson diagonalization with overlap
     ethr =  5.81E-09,  avg # of iterations =  3.0

     total cpu time spent up to now is        7.4 secs

     End of self-consistent calculation

     Number of k-points >= 100: set verbosity='high' to print the bands.

     the Fermi energy is     6.8979 ev

!    total energy              =    -318.49846017 Ry
     Harris-Foulkes estimate   =    -318.49846016 Ry
     estimated scf accuracy    <          8.9E-09 Ry

     The total energy is the sum of the following terms:

     one-electron contribution =    -162.28319143 Ry
     hartree contribution      =      97.62723508 Ry
     xc contribution           =     -85.95944871 Ry
     ewald contribution        =    -167.88333749 Ry
     smearing contrib. (-TS)   =       0.00028238 Ry

     convergence has been achieved in   6 iterations

     Forces acting on atoms (Ry/au):

     atom    1 type  1   force =     0.00000000    0.00000000    0.00000000
     atom    2 type  1   force =     0.00000000    0.00000000    0.00000000

     Total force =     0.000000     Total SCF correction =     0.000000


     entering subroutine stress ...

          total   stress  (Ry/bohr**3)                   (kbar)     P=   -1.29
  -0.00000878  -0.00000000   0.00000000         -1.29     -0.00      0.00
  -0.00000000  -0.00000878  -0.00000000         -0.00     -1.29     -0.00
   0.00000000  -0.00000000  -0.00000878          0.00     -0.00     -1.29


     Writing output data file sn.alpha.save
 
     init_run     :      0.19s CPU      0.20s WALL (       1 calls)
     electrons    :      6.44s CPU      6.57s WALL (       1 calls)
     forces       :      0.05s CPU      0.05s WALL (       1 calls)
     stress       :      0.11s CPU      0.11s WALL (       1 calls)

     Called by init_run:
     wfcinit      :      0.10s CPU      0.10s WALL (       1 calls)
     potinit      :      0.01s CPU      0.01s WALL (       1 calls)

     Called by electrons:
     c_bands      :      5.70s CPU      5.79s WALL (       6 calls)
     sum_band     :      0.62s CPU      0.63s WALL (       6 calls)
     v_of_rho     :      0.02s CPU      0.02s WALL (       7 calls)
     newd         :      0.04s CPU      0.05s WALL (       7 calls)
     mix_rho      :      0.00s CPU      0.00s WALL (       6 calls)

     Called by c_bands:
     init_us_2    :      0.00s CPU      0.02s WALL (     255 calls)
     cegterg      :      2.07s CPU      2.14s WALL (     102 calls)

     Called by sum_band:
     sum_band:bec :      0.00s CPU      0.00s WALL (     102 calls)
     addusdens    :      0.06s CPU      0.07s WALL (       6 calls)

     Called by *egterg:
     h_psi        :      1.27s CPU      1.32s WALL (     415 calls)
     s_psi        :      0.06s CPU      0.03s WALL (     415 calls)
     g_psi        :      0.00s CPU      0.01s WALL (     296 calls)
     cdiaghg      :      0.63s CPU      0.65s WALL (     398 calls)

     Called by h_psi:
     add_vuspsi   :      0.01s CPU      0.03s WALL (     415 calls)

     General routines
     calbec       :      0.05s CPU      0.07s WALL (     602 calls)
     fft          :      0.02s CPU      0.02s WALL (     115 calls)
     fftw         :      1.28s CPU      1.33s WALL (   13378 calls)
     davcio       :      0.00s CPU      0.01s WALL (      17 calls)
 
     Parallel routines
     fft_scatter  :      0.52s CPU      0.62s WALL (   13493 calls)
 
     PWSCF        :     8.70s CPU        34.61s WALL

 
   This run was terminated on:  16:33:12   9Apr2018            

=------------------------------------------------------------------------------=
   JOB DONE.
=------------------------------------------------------------------------------=
Application 30463261 resources: utime ~13218s, stime ~72s, Rss ~31472, inblocks ~3624192, outblocks ~3769441
