
     Program PWSCF v.5.4.0 starts on  7Apr2018 at  0:55:49 

     This program is part of the open-source Quantum ESPRESSO suite
     for quantum simulation of materials; please cite
         "P. Giannozzi et al., J. Phys.:Condens. Matter 21 395502 (2009);
          URL http://www.quantum-espresso.org", 
     in publications or presentations arising from this work. More details at
     http://www.quantum-espresso.org/quote

     Parallel version (MPI & OpenMP), running on     192 processor cores
     Number of MPI processes:               192
     Threads/MPI process:                     1
     K-points division:     npool     =      24
     R & G space division:  proc/nbgrp/npool/nimage =       8
     Waiting for input...
     Reading input from standard input
     Message from routine read_cards :
     DEPRECATED: no units specified in ATOMIC_POSITIONS card
     Message from routine read_cards :
     ATOMIC_POSITIONS: units set to alat

     Current dimensions of program PWSCF are:
     Max number of different atomic species (ntypx) = 10
     Max number of k-points (npk) =  40000
     Max angular momentum in pseudopotentials (lmaxx) =  3

     Subspace diagonalization in iterative solution of the eigenvalue problem:
     one sub-group per band group will be used
     scalapack distributed-memory algorithm (size of sub-group:  2*  2 procs)

 
     Parallelization info
     --------------------
     sticks:   dense  smooth     PW     G-vecs:    dense   smooth      PW
     Min         271     134     39                 8367     2941     479
     Max         272     135     40                 8370     2958     484
     Sum        2173    1075    313                66953    23589    3839
 


     bravais-lattice index     =            2
     lattice parameter (alat)  =      12.5779  a.u.
     unit-cell volume          =     497.4707 (a.u.)^3
     number of atoms/cell      =            2
     number of atomic types    =            1
     number of electrons       =        28.00
     number of Kohn-Sham states=           14
     kinetic-energy cutoff     =      50.0000  Ry
     charge density cutoff     =     400.0000  Ry
     convergence threshold     =      1.0E-08
     mixing beta               =       0.7000
     number of iterations used =            8  plain     mixing
     Exchange-correlation      =  SLA  PW   PBX  PBC ( 1  4  3  4 0 0)

     celldm(1)=  12.577930  celldm(2)=   0.000000  celldm(3)=   0.000000
     celldm(4)=   0.000000  celldm(5)=   0.000000  celldm(6)=   0.000000

     crystal axes: (cart. coord. in units of alat)
               a(1) = (  -0.500000   0.000000   0.500000 )  
               a(2) = (   0.000000   0.500000   0.500000 )  
               a(3) = (  -0.500000   0.500000   0.000000 )  

     reciprocal axes: (cart. coord. in units 2 pi/alat)
               b(1) = ( -1.000000 -1.000000  1.000000 )  
               b(2) = (  1.000000  1.000000  1.000000 )  
               b(3) = ( -1.000000  1.000000 -1.000000 )  


     PseudoPot. # 1 for Sn read from file:
     ./sn_pbe_v1.4.uspp.F.UPF
     MD5 check sum: 469debedee59599fedebd795477fea03
     Pseudo is Ultrasoft + core correction, Zval = 14.0
     Generated by new atomic code, or converted to UPF format
     Using radial grid of  891 points,  6 beta functions with: 
                l(1) =   0
                l(2) =   0
                l(3) =   1
                l(4) =   1
                l(5) =   2
                l(6) =   2
     Q(r) pseudized with  8 coefficients,  rinner =    1.350   1.350   1.350
                                                       1.350   1.350

     atomic species   valence    mass     pseudopotential
        Sn            14.00   118.71000     Sn( 1.00)

     48 Sym. Ops., with inversion, found (24 have fractional translation)



   Cartesian axes

     site n.     atom                  positions (alat units)
         1           Sn  tau(   1) = (   0.0000000   0.0000000   0.0000000  )
         2           Sn  tau(   2) = (   0.2500000   0.2500000   0.2500000  )

     number of k points=    28
                       cart. coord. in units 2pi/alat
        k(    1) = (  -0.0833333   0.0833333   0.0833333), wk =   0.0185185
        k(    2) = (  -0.2500000   0.2500000  -0.0833333), wk =   0.0555556
        k(    3) = (  -0.4166667   0.4166667  -0.2500000), wk =   0.0555556
        k(    4) = (   0.4166667  -0.4166667   0.5833333), wk =   0.0555556
        k(    5) = (   0.2500000  -0.2500000   0.4166667), wk =   0.0555556
        k(    6) = (   0.0833333  -0.0833333   0.2500000), wk =   0.0555556
        k(    7) = (  -0.0833333   0.4166667   0.0833333), wk =   0.0555556
        k(    8) = (  -0.2500000   0.5833333  -0.0833333), wk =   0.1111111
        k(    9) = (   0.5833333  -0.2500000   0.7500000), wk =   0.1111111
        k(   10) = (   0.4166667  -0.0833333   0.5833333), wk =   0.1111111
        k(   11) = (   0.2500000   0.0833333   0.4166667), wk =   0.1111111
        k(   12) = (  -0.0833333   0.7500000   0.0833333), wk =   0.0555556
        k(   13) = (   0.7500000  -0.0833333   0.9166667), wk =   0.1111111
        k(   14) = (   0.5833333   0.0833333   0.7500000), wk =   0.1111111
        k(   15) = (   0.4166667   0.2500000   0.5833333), wk =   0.1111111
        k(   16) = (  -0.0833333  -0.9166667   0.0833333), wk =   0.0555556
        k(   17) = (  -0.2500000  -0.7500000  -0.0833333), wk =   0.1111111
        k(   18) = (  -0.0833333  -0.5833333   0.0833333), wk =   0.0555556
        k(   19) = (  -0.2500000   0.2500000   0.2500000), wk =   0.0185185
        k(   20) = (  -0.4166667   0.4166667   0.0833333), wk =   0.0555556
        k(   21) = (   0.4166667  -0.4166667   0.9166667), wk =   0.0555556
        k(   22) = (   0.2500000  -0.2500000   0.7500000), wk =   0.0555556
        k(   23) = (  -0.2500000   0.5833333   0.2500000), wk =   0.0555556
        k(   24) = (   0.5833333  -0.2500000   1.0833333), wk =   0.1111111
        k(   25) = (   0.4166667  -0.0833333   0.9166667), wk =   0.1111111
        k(   26) = (  -0.2500000  -1.0833333   0.2500000), wk =   0.0555556
        k(   27) = (  -0.4166667   0.4166667   0.4166667), wk =   0.0185185
        k(   28) = (   0.4166667  -0.4166667   1.2500000), wk =   0.0555556

     Dense  grid:    66953 G-vectors     FFT dimensions: (  60,  60,  60)

     Smooth grid:    23589 G-vectors     FFT dimensions: (  45,  45,  45)

     Largest allocated arrays     est. size (Mb)     dimensions
        Kohn-Sham Wavefunctions         0.08 Mb     (     377,   14)
        NL pseudopotentials             0.21 Mb     (     377,   36)
        Each V/rho on FFT grid          0.44 Mb     (   28800)
        Each G-vector array             0.06 Mb     (    8370)
        G-vector shells                 0.00 Mb     (     532)
     Largest temporary arrays     est. size (Mb)     dimensions
        Auxiliary wavefunctions         0.32 Mb     (     377,   56)
        Each subspace H/S matrix        0.01 Mb     (      28,   28)
        Each <psi_i|beta_j> matrix      0.01 Mb     (      36,   14)
        Arrays for rho mixing           3.52 Mb     (   28800,    8)

     Initial potential from superposition of free atoms

     starting charge   25.99991, renormalised to   28.00000
     Starting wfc are   18 randomized atomic wfcs

     total cpu time spent up to now is        0.4 secs

     per-process dynamical memory:    15.3 Mb

     Self-consistent Calculation

     iteration #  1     ecut=    50.00 Ry     beta=0.70
     Davidson diagonalization with overlap
     ethr =  1.00E-02,  avg # of iterations =  2.5

     total cpu time spent up to now is        0.6 secs

     total energy              =    -317.48478404 Ry
     Harris-Foulkes estimate   =    -319.54909775 Ry
     estimated scf accuracy    <       2.51508621 Ry

     iteration #  2     ecut=    50.00 Ry     beta=0.70
     Davidson diagonalization with overlap
     ethr =  8.98E-03,  avg # of iterations =  3.0

     total cpu time spent up to now is        0.7 secs

     total energy              =    -318.39362721 Ry
     Harris-Foulkes estimate   =    -318.71192669 Ry
     estimated scf accuracy    <       0.47390583 Ry

     iteration #  3     ecut=    50.00 Ry     beta=0.70
     Davidson diagonalization with overlap
     ethr =  1.69E-03,  avg # of iterations =  2.0

     total cpu time spent up to now is        0.9 secs

     total energy              =    -318.48873762 Ry
     Harris-Foulkes estimate   =    -318.49030829 Ry
     estimated scf accuracy    <       0.00288421 Ry

     iteration #  4     ecut=    50.00 Ry     beta=0.70
     Davidson diagonalization with overlap
     ethr =  1.03E-05,  avg # of iterations =  3.1

     total cpu time spent up to now is        1.0 secs

     total energy              =    -318.48962902 Ry
     Harris-Foulkes estimate   =    -318.48974668 Ry
     estimated scf accuracy    <       0.00017438 Ry

     iteration #  5     ecut=    50.00 Ry     beta=0.70
     Davidson diagonalization with overlap
     ethr =  6.23E-07,  avg # of iterations =  3.0

     total cpu time spent up to now is        1.2 secs

     total energy              =    -318.48968201 Ry
     Harris-Foulkes estimate   =    -318.48968268 Ry
     estimated scf accuracy    <       0.00000145 Ry

     iteration #  6     ecut=    50.00 Ry     beta=0.70
     Davidson diagonalization with overlap
     ethr =  5.16E-09,  avg # of iterations =  3.9

     total cpu time spent up to now is        1.4 secs

     total energy              =    -318.48968275 Ry
     Harris-Foulkes estimate   =    -318.48968281 Ry
     estimated scf accuracy    <       0.00000009 Ry

     iteration #  7     ecut=    50.00 Ry     beta=0.70
     Davidson diagonalization with overlap
     ethr =  3.12E-10,  avg # of iterations =  3.2

     total cpu time spent up to now is        1.5 secs

     End of self-consistent calculation

          k =-0.0833 0.0833 0.0833 (  2957 PWs)   bands (ev):

   -14.6485 -14.6485 -14.6428 -14.5895 -14.5895 -14.3573 -14.3573 -14.3453
   -14.3295 -14.3295  -3.1384   5.1154   6.8806   6.8806

          k =-0.2500 0.2500-0.0833 (  2958 PWs)   bands (ev):

   -14.6651 -14.6598 -14.6348 -14.5739 -14.5633 -14.3879 -14.3755 -14.3459
   -14.3205 -14.3075  -2.8138   3.5235   5.8547   6.6484

          k =-0.4167 0.4167-0.2500 (  2962 PWs)   bands (ev):

   -14.6755 -14.6753 -14.6175 -14.5535 -14.5422 -14.4048 -14.3908 -14.3722
   -14.3001 -14.2972  -2.0986   1.6310   5.3451   6.0927

          k = 0.4167-0.4167 0.5833 (  2964 PWs)   bands (ev):

   -14.6811 -14.6751 -14.6121 -14.5432 -14.5416 -14.4050 -14.4002 -14.3778
   -14.2988 -14.2923  -1.6917   0.9022   5.3247   5.7941

          k = 0.2500-0.2500 0.4167 (  2962 PWs)   bands (ev):

   -14.6752 -14.6676 -14.6261 -14.5590 -14.5450 -14.4084 -14.3834 -14.3592
   -14.3087 -14.2981  -2.3608   2.2049   5.7247   5.8927

          k = 0.0833-0.0833 0.2500 (  2948 PWs)   bands (ev):

   -14.6575 -14.6534 -14.6428 -14.5825 -14.5697 -14.3868 -14.3586 -14.3397
   -14.3276 -14.3160  -2.9738   4.2065   6.3652   6.3808

          k =-0.0833 0.4167 0.0833 (  2949 PWs)   bands (ev):

   -14.6667 -14.6623 -14.6418 -14.5676 -14.5387 -14.4247 -14.3704 -14.3333
   -14.3176 -14.3081  -2.6471   3.1538   5.6943   5.7754

          k =-0.2500 0.5833-0.0833 (  2967 PWs)   bands (ev):

   -14.6839 -14.6775 -14.6155 -14.5441 -14.5090 -14.4553 -14.3949 -14.3616
   -14.2974 -14.2897  -2.0346   1.8028   4.7528   5.4374

          k = 0.5833-0.2500 0.7500 (  2974 PWs)   bands (ev):

   -14.6981 -14.6838 -14.5856 -14.5224 -14.5088 -14.4501 -14.4221 -14.3934
   -14.2882 -14.2739  -1.3504   0.7065   4.2401   5.2835

          k = 0.4167-0.0833 0.5833 (  2975 PWs)   bands (ev):

   -14.6915 -14.6830 -14.5935 -14.5414 -14.5128 -14.4415 -14.4011 -14.3923
   -14.2887 -14.2825  -1.7868   1.3601   4.3062   5.6260

          k = 0.2500 0.0833 0.4167 (  2957 PWs)   bands (ev):

   -14.6736 -14.6686 -14.6270 -14.5629 -14.5404 -14.4173 -14.3793 -14.3530
   -14.3097 -14.2991  -2.4979   2.6749   5.2569   6.0995

          k =-0.0833 0.7500 0.0833 (  2969 PWs)   bands (ev):

   -14.6852 -14.6811 -14.6139 -14.5166 -14.5095 -14.4624 -14.4199 -14.3583
   -14.2919 -14.2874  -1.5350   1.0694   4.7330   4.9326

          k = 0.7500-0.0833 0.9167 (  2969 PWs)   bands (ev):

   -14.6974 -14.6899 -14.5721 -14.5307 -14.4861 -14.4524 -14.4405 -14.4008
   -14.2810 -14.2732  -0.7421   0.1014   4.2108   4.6850

          k = 0.5833 0.0833 0.7500 (  2980 PWs)   bands (ev):

   -14.7039 -14.6883 -14.5712 -14.5037 -14.4876 -14.4732 -14.4446 -14.4033
   -14.2827 -14.2676  -1.0558   0.4483   3.8821   5.0827

          k = 0.4167 0.2500 0.5833 (  2975 PWs)   bands (ev):

   -14.6878 -14.6782 -14.6035 -14.5423 -14.5281 -14.4239 -14.4004 -14.3836
   -14.2952 -14.2856  -1.7411   1.1155   4.7915   5.6815

          k =-0.0833-0.9167 0.0833 (  2969 PWs)   bands (ev):

   -14.6901 -14.6865 -14.5861 -14.5496 -14.4847 -14.4516 -14.4234 -14.3867
   -14.2847 -14.2806  -0.7742   0.1061   4.5326   4.7546

          k =-0.2500-0.7500-0.0833 (  2978 PWs)   bands (ev):

   -14.6928 -14.6851 -14.5969 -14.5174 -14.4955 -14.4735 -14.4213 -14.3775
   -14.2874 -14.2795  -1.4390   0.9350   4.3960   4.9426

          k =-0.0833-0.5833 0.0833 (  2967 PWs)   bands (ev):

   -14.6769 -14.6724 -14.6328 -14.5450 -14.5019 -14.4669 -14.3922 -14.3392
   -14.3040 -14.2981  -2.1643   2.0954   5.1268   5.2801

          k =-0.2500 0.2500 0.2500 (  2953 PWs)   bands (ev):

   -14.6649 -14.6649 -14.6330 -14.5639 -14.5639 -14.3830 -14.3830 -14.3568
   -14.3093 -14.3093  -2.6607   2.9272   6.3286   6.3286

          k =-0.4167 0.4167 0.0833 (  2969 PWs)   bands (ev):

   -14.6807 -14.6784 -14.6089 -14.5560 -14.5327 -14.4162 -14.3918 -14.3761
   -14.2962 -14.2933  -2.2063   2.0282   4.7242   6.1598

          k = 0.4167-0.4167 0.9167 (  2973 PWs)   bands (ev):

   -14.6999 -14.6847 -14.5807 -14.5257 -14.5065 -14.4385 -14.4335 -14.3980
   -14.2864 -14.2727  -1.4460   0.8889   3.9878   5.5551

          k = 0.2500-0.2500 0.7500 (  2975 PWs)   bands (ev):

   -14.6975 -14.6816 -14.5944 -14.5185 -14.4948 -14.4720 -14.4212 -14.3810
   -14.2911 -14.2745  -1.3964   0.8211   4.2703   5.1956

          k =-0.2500 0.5833 0.2500 (  2968 PWs)   bands (ev):

   -14.6873 -14.6741 -14.6130 -14.5431 -14.5200 -14.4409 -14.3969 -14.3664
   -14.3009 -14.2859  -1.9289   1.4973   4.9061   5.4908

          k = 0.5833-0.2500 1.0833 (  2983 PWs)   bands (ev):

   -14.6994 -14.6896 -14.5759 -14.5175 -14.4870 -14.4747 -14.4274 -14.4009
   -14.2820 -14.2727  -1.2663   0.7055   4.0674   4.9784

          k = 0.4167-0.0833 0.9167 (  2981 PWs)   bands (ev):

   -14.7023 -14.6951 -14.5540 -14.5091 -14.4894 -14.4605 -14.4529 -14.4178
   -14.2757 -14.2687  -0.7079   0.0945   4.0140   4.5316

          k =-0.2500-1.0833 0.2500 (  2970 PWs)   bands (ev):

   -14.7032 -14.6864 -14.5761 -14.5026 -14.4896 -14.4673 -14.4498 -14.3971
   -14.2845 -14.2678  -0.8618   0.2297   3.9254   5.0411

          k =-0.4167 0.4167 0.4167 (  2965 PWs)   bands (ev):

   -14.6728 -14.6728 -14.6231 -14.5486 -14.5486 -14.3956 -14.3956 -14.3692
   -14.3010 -14.3010  -1.9085   1.1915   5.9612   5.9612

          k = 0.4167-0.4167 1.2500 (  2974 PWs)   bands (ev):

   -14.6927 -14.6807 -14.5940 -14.5330 -14.5259 -14.4195 -14.4184 -14.3909
   -14.2918 -14.2804  -1.5239   0.8281   4.5105   5.6431

     highest occupied level (ev):     6.8806

!    total energy              =    -318.48968279 Ry
     Harris-Foulkes estimate   =    -318.48968279 Ry
     estimated scf accuracy    <          2.3E-09 Ry

     The total energy is the sum of the following terms:

     one-electron contribution =    -162.27809604 Ry
     hartree contribution      =      97.63311055 Ry
     xc contribution           =     -85.96135982 Ry
     ewald contribution        =    -167.88333747 Ry

     convergence has been achieved in   7 iterations

     Forces acting on atoms (Ry/au):

     atom    1 type  1   force =    -0.00000000    0.00000000   -0.00000000
     atom    2 type  1   force =     0.00000000    0.00000000    0.00000000

     Total force =     0.000000     Total SCF correction =     0.000000


     entering subroutine stress ...

          total   stress  (Ry/bohr**3)                   (kbar)     P=  -18.55
  -0.00012610  -0.00000000  -0.00000000        -18.55     -0.00     -0.00
  -0.00000000  -0.00012610  -0.00000000         -0.00    -18.55     -0.00
  -0.00000000  -0.00000000  -0.00012610         -0.00     -0.00    -18.55


     Writing output data file sn.alpha.save
 
     init_run     :      0.24s CPU      0.29s WALL (       1 calls)
     electrons    :      1.12s CPU      1.22s WALL (       1 calls)
     forces       :      0.07s CPU      0.07s WALL (       1 calls)
     stress       :      0.23s CPU      0.23s WALL (       1 calls)

     Called by init_run:
     wfcinit      :      0.03s CPU      0.03s WALL (       1 calls)
     potinit      :      0.03s CPU      0.03s WALL (       1 calls)

     Called by electrons:
     c_bands      :      0.37s CPU      0.37s WALL (       7 calls)
     sum_band     :      0.39s CPU      0.41s WALL (       7 calls)
     v_of_rho     :      0.13s CPU      0.13s WALL (       8 calls)
     newd         :      0.20s CPU      0.23s WALL (       8 calls)
     mix_rho      :      0.02s CPU      0.01s WALL (       7 calls)

     Called by c_bands:
     init_us_2    :      0.01s CPU      0.00s WALL (      34 calls)
     cegterg      :      0.31s CPU      0.32s WALL (      14 calls)

     Called by sum_band:
     sum_band:bec :      0.00s CPU      0.00s WALL (      14 calls)
     addusdens    :      0.33s CPU      0.33s WALL (       7 calls)

     Called by *egterg:
     h_psi        :      0.22s CPU      0.23s WALL (      62 calls)
     s_psi        :      0.01s CPU      0.01s WALL (      62 calls)
     g_psi        :      0.00s CPU      0.00s WALL (      46 calls)
     cdiaghg      :      0.07s CPU      0.08s WALL (      60 calls)

     Called by h_psi:
     add_vuspsi   :      0.00s CPU      0.01s WALL (      62 calls)

     General routines
     calbec       :      0.00s CPU      0.01s WALL (      86 calls)
     fft          :      0.09s CPU      0.08s WALL (     149 calls)
     ffts         :      0.00s CPU      0.00s WALL (      15 calls)
     fftw         :      0.22s CPU      0.21s WALL (    1544 calls)
     interpolate  :      0.01s CPU      0.02s WALL (      15 calls)
     davcio       :      0.00s CPU      0.03s WALL (       2 calls)
 
     Parallel routines
     fft_scatter  :      0.10s CPU      0.09s WALL (    1708 calls)
 
     PWSCF        :     2.30s CPU         4.32s WALL

 
   This run was terminated on:   0:55:54   7Apr2018            

=------------------------------------------------------------------------------=
   JOB DONE.
=------------------------------------------------------------------------------=
Application 30444011 resources: utime ~823s, stime ~34s, Rss ~54124, inblocks ~1799907, outblocks ~1442606
