
     Program PWSCF v.5.4.0 starts on  7Apr2018 at  1: 1:12 

     This program is part of the open-source Quantum ESPRESSO suite
     for quantum simulation of materials; please cite
         "P. Giannozzi et al., J. Phys.:Condens. Matter 21 395502 (2009);
          URL http://www.quantum-espresso.org", 
     in publications or presentations arising from this work. More details at
     http://www.quantum-espresso.org/quote

     Parallel version (MPI & OpenMP), running on     192 processor cores
     Number of MPI processes:               192
     Threads/MPI process:                     1
     K-points division:     npool     =      24
     R & G space division:  proc/nbgrp/npool/nimage =       8
     Waiting for input...
     Reading input from standard input
     Message from routine read_cards :
     DEPRECATED: no units specified in ATOMIC_POSITIONS card
     Message from routine read_cards :
     ATOMIC_POSITIONS: units set to alat

     Current dimensions of program PWSCF are:
     Max number of different atomic species (ntypx) = 10
     Max number of k-points (npk) =  40000
     Max angular momentum in pseudopotentials (lmaxx) =  3

     Subspace diagonalization in iterative solution of the eigenvalue problem:
     one sub-group per band group will be used
     scalapack distributed-memory algorithm (size of sub-group:  2*  2 procs)

 
     Parallelization info
     --------------------
     sticks:   dense  smooth     PW     G-vecs:    dense   smooth      PW
     Min         271     134     43                 8367     2940     513
     Max         272     135     44                 8370     2961     514
     Sum        2173    1075    349                66953    23589    4111
 


     bravais-lattice index     =            2
     lattice parameter (alat)  =      12.5779  a.u.
     unit-cell volume          =     497.4707 (a.u.)^3
     number of atoms/cell      =            2
     number of atomic types    =            1
     number of electrons       =        28.00
     number of Kohn-Sham states=           14
     kinetic-energy cutoff     =      50.0000  Ry
     charge density cutoff     =     400.0000  Ry
     convergence threshold     =      1.0E-08
     mixing beta               =       0.7000
     number of iterations used =            8  plain     mixing
     Exchange-correlation      =  SLA  PW   PBX  PBC ( 1  4  3  4 0 0)

     celldm(1)=  12.577930  celldm(2)=   0.000000  celldm(3)=   0.000000
     celldm(4)=   0.000000  celldm(5)=   0.000000  celldm(6)=   0.000000

     crystal axes: (cart. coord. in units of alat)
               a(1) = (  -0.500000   0.000000   0.500000 )  
               a(2) = (   0.000000   0.500000   0.500000 )  
               a(3) = (  -0.500000   0.500000   0.000000 )  

     reciprocal axes: (cart. coord. in units 2 pi/alat)
               b(1) = ( -1.000000 -1.000000  1.000000 )  
               b(2) = (  1.000000  1.000000  1.000000 )  
               b(3) = ( -1.000000  1.000000 -1.000000 )  


     PseudoPot. # 1 for Sn read from file:
     ./sn_pbe_v1.4.uspp.F.UPF
     MD5 check sum: 469debedee59599fedebd795477fea03
     Pseudo is Ultrasoft + core correction, Zval = 14.0
     Generated by new atomic code, or converted to UPF format
     Using radial grid of  891 points,  6 beta functions with: 
                l(1) =   0
                l(2) =   0
                l(3) =   1
                l(4) =   1
                l(5) =   2
                l(6) =   2
     Q(r) pseudized with  8 coefficients,  rinner =    1.350   1.350   1.350
                                                       1.350   1.350

     atomic species   valence    mass     pseudopotential
        Sn            14.00   118.71000     Sn( 1.00)

     48 Sym. Ops., with inversion, found (24 have fractional translation)



   Cartesian axes

     site n.     atom                  positions (alat units)
         1           Sn  tau(   1) = (   0.0000000   0.0000000   0.0000000  )
         2           Sn  tau(   2) = (   0.2500000   0.2500000   0.2500000  )

     number of k points=  1638

     Number of k-points >= 100: set verbosity='high' to print them.

     Dense  grid:    66953 G-vectors     FFT dimensions: (  60,  60,  60)

     Smooth grid:    23589 G-vectors     FFT dimensions: (  45,  45,  45)

     Largest allocated arrays     est. size (Mb)     dimensions
        Kohn-Sham Wavefunctions         0.08 Mb     (     386,   14)
        NL pseudopotentials             0.21 Mb     (     386,   36)
        Each V/rho on FFT grid          0.44 Mb     (   28800)
        Each G-vector array             0.06 Mb     (    8370)
        G-vector shells                 0.00 Mb     (     530)
     Largest temporary arrays     est. size (Mb)     dimensions
        Auxiliary wavefunctions         0.33 Mb     (     386,   56)
        Each subspace H/S matrix        0.01 Mb     (      28,   28)
        Each <psi_i|beta_j> matrix      0.01 Mb     (      36,   14)
        Arrays for rho mixing           3.52 Mb     (   28800,    8)

     Initial potential from superposition of free atoms

     starting charge   25.99991, renormalised to   28.00000
     Starting wfc are   18 randomized atomic wfcs

     total cpu time spent up to now is        1.2 secs

     per-process dynamical memory:    21.2 Mb

     Self-consistent Calculation

     iteration #  1     ecut=    50.00 Ry     beta=0.70
     Davidson diagonalization with overlap
     ethr =  1.00E-02,  avg # of iterations =  2.6

     total cpu time spent up to now is        3.1 secs

     total energy              =    -317.48474574 Ry
     Harris-Foulkes estimate   =    -319.54922416 Ry
     estimated scf accuracy    <       2.51527370 Ry

     iteration #  2     ecut=    50.00 Ry     beta=0.70
     Davidson diagonalization with overlap
     ethr =  8.98E-03,  avg # of iterations =  3.0

     total cpu time spent up to now is        5.2 secs

     total energy              =    -318.39373738 Ry
     Harris-Foulkes estimate   =    -318.71207517 Ry
     estimated scf accuracy    <       0.47391923 Ry

     iteration #  3     ecut=    50.00 Ry     beta=0.70
     Davidson diagonalization with overlap
     ethr =  1.69E-03,  avg # of iterations =  2.0

     total cpu time spent up to now is        7.0 secs

     total energy              =    -318.48887574 Ry
     Harris-Foulkes estimate   =    -318.49044655 Ry
     estimated scf accuracy    <       0.00287891 Ry

     iteration #  4     ecut=    50.00 Ry     beta=0.70
     Davidson diagonalization with overlap
     ethr =  1.03E-05,  avg # of iterations =  2.9

     total cpu time spent up to now is        9.1 secs

     total energy              =    -318.48976250 Ry
     Harris-Foulkes estimate   =    -318.48987926 Ry
     estimated scf accuracy    <       0.00017298 Ry

     iteration #  5     ecut=    50.00 Ry     beta=0.70
     Davidson diagonalization with overlap
     ethr =  6.18E-07,  avg # of iterations =  3.0

     total cpu time spent up to now is       11.2 secs

     total energy              =    -318.48981562 Ry
     Harris-Foulkes estimate   =    -318.48981631 Ry
     estimated scf accuracy    <       0.00000145 Ry

     iteration #  6     ecut=    50.00 Ry     beta=0.70
     Davidson diagonalization with overlap
     ethr =  5.17E-09,  avg # of iterations =  4.0

     total cpu time spent up to now is       13.7 secs

     total energy              =    -318.48981640 Ry
     Harris-Foulkes estimate   =    -318.48981644 Ry
     estimated scf accuracy    <       0.00000007 Ry

     iteration #  7     ecut=    50.00 Ry     beta=0.70
     Davidson diagonalization with overlap
     ethr =  2.64E-10,  avg # of iterations =  3.1

     total cpu time spent up to now is       16.0 secs

     End of self-consistent calculation

     Number of k-points >= 100: set verbosity='high' to print the bands.

     highest occupied level (ev):     6.9973

!    total energy              =    -318.48981643 Ry
     Harris-Foulkes estimate   =    -318.48981643 Ry
     estimated scf accuracy    <          2.5E-09 Ry

     The total energy is the sum of the following terms:

     one-electron contribution =    -162.27688899 Ry
     hartree contribution      =      97.63161558 Ry
     xc contribution           =     -85.96120554 Ry
     ewald contribution        =    -167.88333747 Ry

     convergence has been achieved in   7 iterations

     Forces acting on atoms (Ry/au):

     atom    1 type  1   force =     0.00000000    0.00000000    0.00000000
     atom    2 type  1   force =     0.00000000    0.00000000    0.00000000

     Total force =     0.000000     Total SCF correction =     0.000000


     entering subroutine stress ...

          total   stress  (Ry/bohr**3)                   (kbar)     P=  -18.47
  -0.00012557  -0.00000000  -0.00000000        -18.47     -0.00     -0.00
  -0.00000000  -0.00012557   0.00000000         -0.00    -18.47      0.00
   0.00000000   0.00000000  -0.00012557          0.00      0.00    -18.47


     Writing output data file sn.alpha.save
 
     init_run     :      0.76s CPU      0.79s WALL (       1 calls)
     electrons    :     14.51s CPU     14.90s WALL (       1 calls)
     forces       :      0.14s CPU      0.14s WALL (       1 calls)
     stress       :      0.39s CPU      0.39s WALL (       1 calls)

     Called by init_run:
     wfcinit      :      0.53s CPU      0.53s WALL (       1 calls)
     potinit      :      0.02s CPU      0.03s WALL (       1 calls)

     Called by electrons:
     c_bands      :     12.48s CPU     12.79s WALL (       7 calls)
     sum_band     :      1.70s CPU      1.73s WALL (       7 calls)
     v_of_rho     :      0.13s CPU      0.13s WALL (       8 calls)
     newd         :      0.22s CPU      0.23s WALL (       8 calls)
     mix_rho      :      0.00s CPU      0.01s WALL (       7 calls)

     Called by c_bands:
     init_us_2    :      0.13s CPU      0.12s WALL (    1173 calls)
     cegterg      :     10.79s CPU     11.03s WALL (     483 calls)

     Called by sum_band:
     sum_band:bec :      0.00s CPU      0.01s WALL (     483 calls)
     addusdens    :      0.30s CPU      0.31s WALL (       7 calls)

     Called by *egterg:
     h_psi        :      7.36s CPU      7.52s WALL (    2098 calls)
     s_psi        :      0.12s CPU      0.19s WALL (    2098 calls)
     g_psi        :      0.04s CPU      0.04s WALL (    1546 calls)
     cdiaghg      :      2.66s CPU      2.62s WALL (    2029 calls)

     Called by h_psi:
     add_vuspsi   :      0.24s CPU      0.21s WALL (    2098 calls)

     General routines
     calbec       :      0.40s CPU      0.37s WALL (    2926 calls)
     fft          :      0.10s CPU      0.09s WALL (     149 calls)
     ffts         :      0.00s CPU      0.00s WALL (      15 calls)
     fftw         :      6.65s CPU      6.88s WALL (   53008 calls)
     interpolate  :      0.02s CPU      0.01s WALL (      15 calls)
     davcio       :      0.00s CPU      0.66s WALL (      69 calls)
 
     Parallel routines
     fft_scatter  :      1.33s CPU      1.50s WALL (   53172 calls)
 
     PWSCF        :  0m18.12s CPU     1m26.06s WALL

 
   This run was terminated on:   1: 2:38   7Apr2018            

=------------------------------------------------------------------------------=
   JOB DONE.
=------------------------------------------------------------------------------=
Application 30444027 resources: utime ~16264s, stime ~70s, Rss ~60604, inblocks ~1799894, outblocks ~3595722
