
     Program PWSCF v.5.4.0 starts on  7Apr2018 at  0:56:31 

     This program is part of the open-source Quantum ESPRESSO suite
     for quantum simulation of materials; please cite
         "P. Giannozzi et al., J. Phys.:Condens. Matter 21 395502 (2009);
          URL http://www.quantum-espresso.org", 
     in publications or presentations arising from this work. More details at
     http://www.quantum-espresso.org/quote

     Parallel version (MPI & OpenMP), running on     192 processor cores
     Number of MPI processes:               192
     Threads/MPI process:                     1
     K-points division:     npool     =      24
     R & G space division:  proc/nbgrp/npool/nimage =       8
     Waiting for input...
     Reading input from standard input
     Message from routine read_cards :
     DEPRECATED: no units specified in ATOMIC_POSITIONS card
     Message from routine read_cards :
     ATOMIC_POSITIONS: units set to alat

     Current dimensions of program PWSCF are:
     Max number of different atomic species (ntypx) = 10
     Max number of k-points (npk) =  40000
     Max angular momentum in pseudopotentials (lmaxx) =  3

     Subspace diagonalization in iterative solution of the eigenvalue problem:
     one sub-group per band group will be used
     scalapack distributed-memory algorithm (size of sub-group:  2*  2 procs)

 
     Parallelization info
     --------------------
     sticks:   dense  smooth     PW     G-vecs:    dense   smooth      PW
     Min         271     134     42                 8367     2942     501
     Max         272     135     43                 8370     2953     503
     Sum        2173    1075    337                66953    23589    4015
 


     bravais-lattice index     =            2
     lattice parameter (alat)  =      12.5779  a.u.
     unit-cell volume          =     497.4707 (a.u.)^3
     number of atoms/cell      =            2
     number of atomic types    =            1
     number of electrons       =        28.00
     number of Kohn-Sham states=           14
     kinetic-energy cutoff     =      50.0000  Ry
     charge density cutoff     =     400.0000  Ry
     convergence threshold     =      1.0E-08
     mixing beta               =       0.7000
     number of iterations used =            8  plain     mixing
     Exchange-correlation      =  SLA  PW   PBX  PBC ( 1  4  3  4 0 0)

     celldm(1)=  12.577930  celldm(2)=   0.000000  celldm(3)=   0.000000
     celldm(4)=   0.000000  celldm(5)=   0.000000  celldm(6)=   0.000000

     crystal axes: (cart. coord. in units of alat)
               a(1) = (  -0.500000   0.000000   0.500000 )  
               a(2) = (   0.000000   0.500000   0.500000 )  
               a(3) = (  -0.500000   0.500000   0.000000 )  

     reciprocal axes: (cart. coord. in units 2 pi/alat)
               b(1) = ( -1.000000 -1.000000  1.000000 )  
               b(2) = (  1.000000  1.000000  1.000000 )  
               b(3) = ( -1.000000  1.000000 -1.000000 )  


     PseudoPot. # 1 for Sn read from file:
     ./sn_pbe_v1.4.uspp.F.UPF
     MD5 check sum: 469debedee59599fedebd795477fea03
     Pseudo is Ultrasoft + core correction, Zval = 14.0
     Generated by new atomic code, or converted to UPF format
     Using radial grid of  891 points,  6 beta functions with: 
                l(1) =   0
                l(2) =   0
                l(3) =   1
                l(4) =   1
                l(5) =   2
                l(6) =   2
     Q(r) pseudized with  8 coefficients,  rinner =    1.350   1.350   1.350
                                                       1.350   1.350

     atomic species   valence    mass     pseudopotential
        Sn            14.00   118.71000     Sn( 1.00)

     48 Sym. Ops., with inversion, found (24 have fractional translation)



   Cartesian axes

     site n.     atom                  positions (alat units)
         1           Sn  tau(   1) = (   0.0000000   0.0000000   0.0000000  )
         2           Sn  tau(   2) = (   0.2500000   0.2500000   0.2500000  )

     number of k points=   110

     Number of k-points >= 100: set verbosity='high' to print them.

     Dense  grid:    66953 G-vectors     FFT dimensions: (  60,  60,  60)

     Smooth grid:    23589 G-vectors     FFT dimensions: (  45,  45,  45)

     Largest allocated arrays     est. size (Mb)     dimensions
        Kohn-Sham Wavefunctions         0.08 Mb     (     374,   14)
        NL pseudopotentials             0.21 Mb     (     374,   36)
        Each V/rho on FFT grid          0.44 Mb     (   28800)
        Each G-vector array             0.06 Mb     (    8370)
        G-vector shells                 0.00 Mb     (     529)
     Largest temporary arrays     est. size (Mb)     dimensions
        Auxiliary wavefunctions         0.32 Mb     (     374,   56)
        Each subspace H/S matrix        0.01 Mb     (      28,   28)
        Each <psi_i|beta_j> matrix      0.01 Mb     (      36,   14)
        Arrays for rho mixing           3.52 Mb     (   28800,    8)

     Initial potential from superposition of free atoms

     starting charge   25.99991, renormalised to   28.00000
     Starting wfc are   18 randomized atomic wfcs

     total cpu time spent up to now is        0.5 secs

     per-process dynamical memory:    15.3 Mb

     Self-consistent Calculation

     iteration #  1     ecut=    50.00 Ry     beta=0.70
     Davidson diagonalization with overlap
     ethr =  1.00E-02,  avg # of iterations =  2.6

     total cpu time spent up to now is        0.7 secs

     total energy              =    -317.48468225 Ry
     Harris-Foulkes estimate   =    -319.54920943 Ry
     estimated scf accuracy    <       2.51533889 Ry

     iteration #  2     ecut=    50.00 Ry     beta=0.70
     Davidson diagonalization with overlap
     ethr =  8.98E-03,  avg # of iterations =  3.0

     total cpu time spent up to now is        1.0 secs

     total energy              =    -318.39373175 Ry
     Harris-Foulkes estimate   =    -318.71207155 Ry
     estimated scf accuracy    <       0.47391950 Ry

     iteration #  3     ecut=    50.00 Ry     beta=0.70
     Davidson diagonalization with overlap
     ethr =  1.69E-03,  avg # of iterations =  2.0

     total cpu time spent up to now is        1.2 secs

     total energy              =    -318.48886954 Ry
     Harris-Foulkes estimate   =    -318.49044125 Ry
     estimated scf accuracy    <       0.00287954 Ry

     iteration #  4     ecut=    50.00 Ry     beta=0.70
     Davidson diagonalization with overlap
     ethr =  1.03E-05,  avg # of iterations =  3.0

     total cpu time spent up to now is        1.5 secs

     total energy              =    -318.48975454 Ry
     Harris-Foulkes estimate   =    -318.48987123 Ry
     estimated scf accuracy    <       0.00017279 Ry

     iteration #  5     ecut=    50.00 Ry     beta=0.70
     Davidson diagonalization with overlap
     ethr =  6.17E-07,  avg # of iterations =  3.0

     total cpu time spent up to now is        1.7 secs

     total energy              =    -318.48980756 Ry
     Harris-Foulkes estimate   =    -318.48980828 Ry
     estimated scf accuracy    <       0.00000149 Ry

     iteration #  6     ecut=    50.00 Ry     beta=0.70
     Davidson diagonalization with overlap
     ethr =  5.33E-09,  avg # of iterations =  3.9

     total cpu time spent up to now is        2.0 secs

     total energy              =    -318.48980832 Ry
     Harris-Foulkes estimate   =    -318.48980836 Ry
     estimated scf accuracy    <       0.00000007 Ry

     iteration #  7     ecut=    50.00 Ry     beta=0.70
     Davidson diagonalization with overlap
     ethr =  2.44E-10,  avg # of iterations =  3.1

     total cpu time spent up to now is        2.3 secs

     End of self-consistent calculation

     Number of k-points >= 100: set verbosity='high' to print the bands.

     highest occupied level (ev):     6.9569

!    total energy              =    -318.48980835 Ry
     Harris-Foulkes estimate   =    -318.48980835 Ry
     estimated scf accuracy    <          2.3E-09 Ry

     The total energy is the sum of the following terms:

     one-electron contribution =    -162.27701067 Ry
     hartree contribution      =      97.63176048 Ry
     xc contribution           =     -85.96122069 Ry
     ewald contribution        =    -167.88333747 Ry

     convergence has been achieved in   7 iterations

     Forces acting on atoms (Ry/au):

     atom    1 type  1   force =    -0.00000000    0.00000000   -0.00000000
     atom    2 type  1   force =     0.00000000   -0.00000000    0.00000000

     Total force =     0.000000     Total SCF correction =     0.000000


     entering subroutine stress ...

          total   stress  (Ry/bohr**3)                   (kbar)     P=  -18.46
  -0.00012551   0.00000000   0.00000000        -18.46      0.00      0.00
   0.00000000  -0.00012551   0.00000000          0.00    -18.46      0.00
   0.00000000   0.00000000  -0.00012551          0.00      0.00    -18.46


     Writing output data file sn.alpha.save
 
     init_run     :      0.26s CPU      0.31s WALL (       1 calls)
     electrons    :      1.73s CPU      1.79s WALL (       1 calls)
     forces       :      0.07s CPU      0.07s WALL (       1 calls)
     stress       :      0.24s CPU      0.24s WALL (       1 calls)

     Called by init_run:
     wfcinit      :      0.05s CPU      0.05s WALL (       1 calls)
     potinit      :      0.02s CPU      0.03s WALL (       1 calls)

     Called by electrons:
     c_bands      :      0.91s CPU      0.94s WALL (       7 calls)
     sum_band     :      0.47s CPU      0.48s WALL (       7 calls)
     v_of_rho     :      0.13s CPU      0.13s WALL (       8 calls)
     newd         :      0.20s CPU      0.23s WALL (       8 calls)
     mix_rho      :      0.00s CPU      0.01s WALL (       7 calls)

     Called by c_bands:
     init_us_2    :      0.00s CPU      0.01s WALL (      85 calls)
     cegterg      :      0.79s CPU      0.80s WALL (      35 calls)

     Called by sum_band:
     sum_band:bec :      0.00s CPU      0.00s WALL (      35 calls)
     addusdens    :      0.31s CPU      0.33s WALL (       7 calls)

     Called by *egterg:
     h_psi        :      0.54s CPU      0.56s WALL (     152 calls)
     s_psi        :      0.01s CPU      0.01s WALL (     152 calls)
     g_psi        :      0.00s CPU      0.00s WALL (     112 calls)
     cdiaghg      :      0.20s CPU      0.19s WALL (     147 calls)

     Called by h_psi:
     add_vuspsi   :      0.01s CPU      0.02s WALL (     152 calls)

     General routines
     calbec       :      0.02s CPU      0.03s WALL (     212 calls)
     fft          :      0.08s CPU      0.08s WALL (     149 calls)
     ffts         :      0.00s CPU      0.00s WALL (      15 calls)
     fftw         :      0.52s CPU      0.51s WALL (    3838 calls)
     interpolate  :      0.02s CPU      0.01s WALL (      15 calls)
     davcio       :      0.00s CPU      0.03s WALL (       5 calls)
 
     Parallel routines
     fft_scatter  :      0.14s CPU      0.16s WALL (    4002 calls)
 
     PWSCF        :     2.63s CPU         6.65s WALL

 
   This run was terminated on:   0:56:37   7Apr2018            

=------------------------------------------------------------------------------=
   JOB DONE.
=------------------------------------------------------------------------------=
Application 30444015 resources: utime ~1264s, stime ~35s, Rss ~54532, inblocks ~1800046, outblocks ~1548731
