
     Program PWSCF v.5.4.0 starts on  7Apr2018 at  1: 2:46 

     This program is part of the open-source Quantum ESPRESSO suite
     for quantum simulation of materials; please cite
         "P. Giannozzi et al., J. Phys.:Condens. Matter 21 395502 (2009);
          URL http://www.quantum-espresso.org", 
     in publications or presentations arising from this work. More details at
     http://www.quantum-espresso.org/quote

     Parallel version (MPI & OpenMP), running on     192 processor cores
     Number of MPI processes:               192
     Threads/MPI process:                     1
     K-points division:     npool     =      24
     R & G space division:  proc/nbgrp/npool/nimage =       8
     Waiting for input...
     Reading input from standard input
     Message from routine read_cards :
     DEPRECATED: no units specified in ATOMIC_POSITIONS card
     Message from routine read_cards :
     ATOMIC_POSITIONS: units set to alat

     Current dimensions of program PWSCF are:
     Max number of different atomic species (ntypx) = 10
     Max number of k-points (npk) =  40000
     Max angular momentum in pseudopotentials (lmaxx) =  3

     Subspace diagonalization in iterative solution of the eigenvalue problem:
     one sub-group per band group will be used
     scalapack distributed-memory algorithm (size of sub-group:  2*  2 procs)

 
     Parallelization info
     --------------------
     sticks:   dense  smooth     PW     G-vecs:    dense   smooth      PW
     Min         271     134     43                 8367     2940     513
     Max         272     135     44                 8370     2961     514
     Sum        2173    1075    349                66953    23589    4111
 


     bravais-lattice index     =            2
     lattice parameter (alat)  =      12.5779  a.u.
     unit-cell volume          =     497.4707 (a.u.)^3
     number of atoms/cell      =            2
     number of atomic types    =            1
     number of electrons       =        28.00
     number of Kohn-Sham states=           14
     kinetic-energy cutoff     =      50.0000  Ry
     charge density cutoff     =     400.0000  Ry
     convergence threshold     =      1.0E-08
     mixing beta               =       0.7000
     number of iterations used =            8  plain     mixing
     Exchange-correlation      =  SLA  PW   PBX  PBC ( 1  4  3  4 0 0)

     celldm(1)=  12.577930  celldm(2)=   0.000000  celldm(3)=   0.000000
     celldm(4)=   0.000000  celldm(5)=   0.000000  celldm(6)=   0.000000

     crystal axes: (cart. coord. in units of alat)
               a(1) = (  -0.500000   0.000000   0.500000 )  
               a(2) = (   0.000000   0.500000   0.500000 )  
               a(3) = (  -0.500000   0.500000   0.000000 )  

     reciprocal axes: (cart. coord. in units 2 pi/alat)
               b(1) = ( -1.000000 -1.000000  1.000000 )  
               b(2) = (  1.000000  1.000000  1.000000 )  
               b(3) = ( -1.000000  1.000000 -1.000000 )  


     PseudoPot. # 1 for Sn read from file:
     ./sn_pbe_v1.4.uspp.F.UPF
     MD5 check sum: 469debedee59599fedebd795477fea03
     Pseudo is Ultrasoft + core correction, Zval = 14.0
     Generated by new atomic code, or converted to UPF format
     Using radial grid of  891 points,  6 beta functions with: 
                l(1) =   0
                l(2) =   0
                l(3) =   1
                l(4) =   1
                l(5) =   2
                l(6) =   2
     Q(r) pseudized with  8 coefficients,  rinner =    1.350   1.350   1.350
                                                       1.350   1.350

     atomic species   valence    mass     pseudopotential
        Sn            14.00   118.71000     Sn( 1.00)

     48 Sym. Ops., with inversion, found (24 have fractional translation)



   Cartesian axes

     site n.     atom                  positions (alat units)
         1           Sn  tau(   1) = (   0.0000000   0.0000000   0.0000000  )
         2           Sn  tau(   2) = (   0.2500000   0.2500000   0.2500000  )

     number of k points=  2030

     Number of k-points >= 100: set verbosity='high' to print them.

     Dense  grid:    66953 G-vectors     FFT dimensions: (  60,  60,  60)

     Smooth grid:    23589 G-vectors     FFT dimensions: (  45,  45,  45)

     Largest allocated arrays     est. size (Mb)     dimensions
        Kohn-Sham Wavefunctions         0.08 Mb     (     387,   14)
        NL pseudopotentials             0.21 Mb     (     387,   36)
        Each V/rho on FFT grid          0.44 Mb     (   28800)
        Each G-vector array             0.06 Mb     (    8370)
        G-vector shells                 0.00 Mb     (     530)
     Largest temporary arrays     est. size (Mb)     dimensions
        Auxiliary wavefunctions         0.33 Mb     (     387,   56)
        Each subspace H/S matrix        0.01 Mb     (      28,   28)
        Each <psi_i|beta_j> matrix      0.01 Mb     (      36,   14)
        Arrays for rho mixing           3.52 Mb     (   28800,    8)

     Initial potential from superposition of free atoms

     starting charge   25.99991, renormalised to   28.00000
     Starting wfc are   18 randomized atomic wfcs

     total cpu time spent up to now is        1.2 secs

     per-process dynamical memory:    22.8 Mb

     Self-consistent Calculation

     iteration #  1     ecut=    50.00 Ry     beta=0.70
     Davidson diagonalization with overlap
     ethr =  1.00E-02,  avg # of iterations =  2.6

     total cpu time spent up to now is        3.5 secs

     total energy              =    -317.48478770 Ry
     Harris-Foulkes estimate   =    -319.54922554 Ry
     estimated scf accuracy    <       2.51522383 Ry

     iteration #  2     ecut=    50.00 Ry     beta=0.70
     Davidson diagonalization with overlap
     ethr =  8.98E-03,  avg # of iterations =  3.0

     total cpu time spent up to now is        6.1 secs

     total energy              =    -318.39373751 Ry
     Harris-Foulkes estimate   =    -318.71207416 Ry
     estimated scf accuracy    <       0.47391416 Ry

     iteration #  3     ecut=    50.00 Ry     beta=0.70
     Davidson diagonalization with overlap
     ethr =  1.69E-03,  avg # of iterations =  2.0

     total cpu time spent up to now is        8.3 secs

     total energy              =    -318.48887585 Ry
     Harris-Foulkes estimate   =    -318.49044583 Ry
     estimated scf accuracy    <       0.00287797 Ry

     iteration #  4     ecut=    50.00 Ry     beta=0.70
     Davidson diagonalization with overlap
     ethr =  1.03E-05,  avg # of iterations =  2.9

     total cpu time spent up to now is       10.9 secs

     total energy              =    -318.48976115 Ry
     Harris-Foulkes estimate   =    -318.48987801 Ry
     estimated scf accuracy    <       0.00017312 Ry

     iteration #  5     ecut=    50.00 Ry     beta=0.70
     Davidson diagonalization with overlap
     ethr =  6.18E-07,  avg # of iterations =  3.0

     total cpu time spent up to now is       13.4 secs

     total energy              =    -318.48981431 Ry
     Harris-Foulkes estimate   =    -318.48981501 Ry
     estimated scf accuracy    <       0.00000146 Ry

     iteration #  6     ecut=    50.00 Ry     beta=0.70
     Davidson diagonalization with overlap
     c_bands:  1 eigenvalues not converged
     ethr =  5.23E-09,  avg # of iterations =  4.0

     total cpu time spent up to now is       16.5 secs

     total energy              =    -318.48981509 Ry
     Harris-Foulkes estimate   =    -318.48981514 Ry
     estimated scf accuracy    <       0.00000007 Ry

     iteration #  7     ecut=    50.00 Ry     beta=0.70
     Davidson diagonalization with overlap
     ethr =  2.63E-10,  avg # of iterations =  3.1

     total cpu time spent up to now is       19.3 secs

     End of self-consistent calculation

     Number of k-points >= 100: set verbosity='high' to print the bands.

     highest occupied level (ev):     6.9983

!    total energy              =    -318.48981512 Ry
     Harris-Foulkes estimate   =    -318.48981512 Ry
     estimated scf accuracy    <          2.5E-09 Ry

     The total energy is the sum of the following terms:

     one-electron contribution =    -162.27688534 Ry
     hartree contribution      =      97.63161293 Ry
     xc contribution           =     -85.96120524 Ry
     ewald contribution        =    -167.88333747 Ry

     convergence has been achieved in   7 iterations

     Forces acting on atoms (Ry/au):

     atom    1 type  1   force =    -0.00000000    0.00000000   -0.00000000
     atom    2 type  1   force =     0.00000000   -0.00000000    0.00000000

     Total force =     0.000000     Total SCF correction =     0.000000


     entering subroutine stress ...

          total   stress  (Ry/bohr**3)                   (kbar)     P=  -18.48
  -0.00012561  -0.00000000  -0.00000000        -18.48     -0.00     -0.00
  -0.00000000  -0.00012561   0.00000000         -0.00    -18.48      0.00
  -0.00000000   0.00000000  -0.00012561         -0.00      0.00    -18.48


     Writing output data file sn.alpha.save
 
     init_run     :      0.86s CPU      0.90s WALL (       1 calls)
     electrons    :     17.77s CPU     18.19s WALL (       1 calls)
     forces       :      0.15s CPU      0.15s WALL (       1 calls)
     stress       :      0.43s CPU      0.43s WALL (       1 calls)

     Called by init_run:
     wfcinit      :      0.63s CPU      0.64s WALL (       1 calls)
     potinit      :      0.03s CPU      0.03s WALL (       1 calls)

     Called by electrons:
     c_bands      :     15.41s CPU     15.75s WALL (       7 calls)
     sum_band     :      2.01s CPU      2.04s WALL (       7 calls)
     v_of_rho     :      0.13s CPU      0.13s WALL (       8 calls)
     newd         :      0.21s CPU      0.23s WALL (       8 calls)
     mix_rho      :      0.02s CPU      0.01s WALL (       7 calls)

     Called by c_bands:
     init_us_2    :      0.12s CPU      0.15s WALL (    1445 calls)
     cegterg      :     13.48s CPU     13.69s WALL (     595 calls)

     Called by sum_band:
     sum_band:bec :      0.00s CPU      0.01s WALL (     595 calls)
     addusdens    :      0.29s CPU      0.30s WALL (       7 calls)

     Called by *egterg:
     h_psi        :      9.06s CPU      9.28s WALL (    2588 calls)
     s_psi        :      0.19s CPU      0.24s WALL (    2588 calls)
     g_psi        :      0.06s CPU      0.05s WALL (    1908 calls)
     cdiaghg      :      3.34s CPU      3.28s WALL (    2503 calls)

     Called by h_psi:
     add_vuspsi   :      0.26s CPU      0.26s WALL (    2588 calls)

     General routines
     calbec       :      0.46s CPU      0.46s WALL (    3608 calls)
     fft          :      0.11s CPU      0.08s WALL (     149 calls)
     ffts         :      0.01s CPU      0.00s WALL (      15 calls)
     fftw         :      8.36s CPU      8.50s WALL (   65350 calls)
     interpolate  :      0.02s CPU      0.01s WALL (      15 calls)
     davcio       :      0.00s CPU      0.89s WALL (      85 calls)
 
     Parallel routines
     fft_scatter  :      1.94s CPU      1.87s WALL (   65514 calls)
 
     PWSCF        :  0m21.99s CPU     1m31.68s WALL

 
   This run was terminated on:   1: 4:18   7Apr2018            

=------------------------------------------------------------------------------=
   JOB DONE.
=------------------------------------------------------------------------------=
Application 30444033 resources: utime ~17329s, stime ~77s, Rss ~62252, inblocks ~1801054, outblocks ~4121489
