
     Program PWSCF v.5.4.0 starts on  7Apr2018 at  0:56:15 

     This program is part of the open-source Quantum ESPRESSO suite
     for quantum simulation of materials; please cite
         "P. Giannozzi et al., J. Phys.:Condens. Matter 21 395502 (2009);
          URL http://www.quantum-espresso.org", 
     in publications or presentations arising from this work. More details at
     http://www.quantum-espresso.org/quote

     Parallel version (MPI & OpenMP), running on     192 processor cores
     Number of MPI processes:               192
     Threads/MPI process:                     1
     K-points division:     npool     =      24
     R & G space division:  proc/nbgrp/npool/nimage =       8
     Waiting for input...
     Reading input from standard input
     Message from routine read_cards :
     DEPRECATED: no units specified in ATOMIC_POSITIONS card
     Message from routine read_cards :
     ATOMIC_POSITIONS: units set to alat

     Current dimensions of program PWSCF are:
     Max number of different atomic species (ntypx) = 10
     Max number of k-points (npk) =  40000
     Max angular momentum in pseudopotentials (lmaxx) =  3

     Subspace diagonalization in iterative solution of the eigenvalue problem:
     one sub-group per band group will be used
     scalapack distributed-memory algorithm (size of sub-group:  2*  2 procs)

 
     Parallelization info
     --------------------
     sticks:   dense  smooth     PW     G-vecs:    dense   smooth      PW
     Min         271     134     40                 8367     2940     492
     Max         272     135     43                 8370     2963     494
     Sum        2173    1075    337                66953    23589    3943
 


     bravais-lattice index     =            2
     lattice parameter (alat)  =      12.5779  a.u.
     unit-cell volume          =     497.4707 (a.u.)^3
     number of atoms/cell      =            2
     number of atomic types    =            1
     number of electrons       =        28.00
     number of Kohn-Sham states=           14
     kinetic-energy cutoff     =      50.0000  Ry
     charge density cutoff     =     400.0000  Ry
     convergence threshold     =      1.0E-08
     mixing beta               =       0.7000
     number of iterations used =            8  plain     mixing
     Exchange-correlation      =  SLA  PW   PBX  PBC ( 1  4  3  4 0 0)

     celldm(1)=  12.577930  celldm(2)=   0.000000  celldm(3)=   0.000000
     celldm(4)=   0.000000  celldm(5)=   0.000000  celldm(6)=   0.000000

     crystal axes: (cart. coord. in units of alat)
               a(1) = (  -0.500000   0.000000   0.500000 )  
               a(2) = (   0.000000   0.500000   0.500000 )  
               a(3) = (  -0.500000   0.500000   0.000000 )  

     reciprocal axes: (cart. coord. in units 2 pi/alat)
               b(1) = ( -1.000000 -1.000000  1.000000 )  
               b(2) = (  1.000000  1.000000  1.000000 )  
               b(3) = ( -1.000000  1.000000 -1.000000 )  


     PseudoPot. # 1 for Sn read from file:
     ./sn_pbe_v1.4.uspp.F.UPF
     MD5 check sum: 469debedee59599fedebd795477fea03
     Pseudo is Ultrasoft + core correction, Zval = 14.0
     Generated by new atomic code, or converted to UPF format
     Using radial grid of  891 points,  6 beta functions with: 
                l(1) =   0
                l(2) =   0
                l(3) =   1
                l(4) =   1
                l(5) =   2
                l(6) =   2
     Q(r) pseudized with  8 coefficients,  rinner =    1.350   1.350   1.350
                                                       1.350   1.350

     atomic species   valence    mass     pseudopotential
        Sn            14.00   118.71000     Sn( 1.00)

     48 Sym. Ops., with inversion, found (24 have fractional translation)



   Cartesian axes

     site n.     atom                  positions (alat units)
         1           Sn  tau(   1) = (   0.0000000   0.0000000   0.0000000  )
         2           Sn  tau(   2) = (   0.2500000   0.2500000   0.2500000  )

     number of k points=    60
                       cart. coord. in units 2pi/alat
        k(    1) = (  -0.0625000   0.0625000   0.0625000), wk =   0.0078125
        k(    2) = (  -0.1875000   0.1875000  -0.0625000), wk =   0.0234375
        k(    3) = (  -0.3125000   0.3125000  -0.1875000), wk =   0.0234375
        k(    4) = (  -0.4375000   0.4375000  -0.3125000), wk =   0.0234375
        k(    5) = (   0.4375000  -0.4375000   0.5625000), wk =   0.0234375
        k(    6) = (   0.3125000  -0.3125000   0.4375000), wk =   0.0234375
        k(    7) = (   0.1875000  -0.1875000   0.3125000), wk =   0.0234375
        k(    8) = (   0.0625000  -0.0625000   0.1875000), wk =   0.0234375
        k(    9) = (  -0.0625000   0.3125000   0.0625000), wk =   0.0234375
        k(   10) = (  -0.1875000   0.4375000  -0.0625000), wk =   0.0468750
        k(   11) = (  -0.3125000   0.5625000  -0.1875000), wk =   0.0468750
        k(   12) = (   0.5625000  -0.3125000   0.6875000), wk =   0.0468750
        k(   13) = (   0.4375000  -0.1875000   0.5625000), wk =   0.0468750
        k(   14) = (   0.3125000  -0.0625000   0.4375000), wk =   0.0468750
        k(   15) = (   0.1875000   0.0625000   0.3125000), wk =   0.0468750
        k(   16) = (  -0.0625000   0.5625000   0.0625000), wk =   0.0234375
        k(   17) = (  -0.1875000   0.6875000  -0.0625000), wk =   0.0468750
        k(   18) = (   0.6875000  -0.1875000   0.8125000), wk =   0.0468750
        k(   19) = (   0.5625000  -0.0625000   0.6875000), wk =   0.0468750
        k(   20) = (   0.4375000   0.0625000   0.5625000), wk =   0.0468750
        k(   21) = (   0.3125000   0.1875000   0.4375000), wk =   0.0468750
        k(   22) = (  -0.0625000   0.8125000   0.0625000), wk =   0.0234375
        k(   23) = (   0.8125000  -0.0625000   0.9375000), wk =   0.0468750
        k(   24) = (   0.6875000   0.0625000   0.8125000), wk =   0.0468750
        k(   25) = (   0.5625000   0.1875000   0.6875000), wk =   0.0468750
        k(   26) = (   0.4375000   0.3125000   0.5625000), wk =   0.0468750
        k(   27) = (  -0.0625000  -0.9375000   0.0625000), wk =   0.0234375
        k(   28) = (  -0.1875000  -0.8125000  -0.0625000), wk =   0.0468750
        k(   29) = (  -0.3125000  -0.6875000  -0.1875000), wk =   0.0468750
        k(   30) = (  -0.0625000  -0.6875000   0.0625000), wk =   0.0234375
        k(   31) = (  -0.1875000  -0.5625000  -0.0625000), wk =   0.0468750
        k(   32) = (  -0.0625000  -0.4375000   0.0625000), wk =   0.0234375
        k(   33) = (  -0.1875000   0.1875000   0.1875000), wk =   0.0078125
        k(   34) = (  -0.3125000   0.3125000   0.0625000), wk =   0.0234375
        k(   35) = (  -0.4375000   0.4375000  -0.0625000), wk =   0.0234375
        k(   36) = (   0.4375000  -0.4375000   0.8125000), wk =   0.0234375
        k(   37) = (   0.3125000  -0.3125000   0.6875000), wk =   0.0234375
        k(   38) = (   0.1875000  -0.1875000   0.5625000), wk =   0.0234375
        k(   39) = (  -0.1875000   0.4375000   0.1875000), wk =   0.0234375
        k(   40) = (  -0.3125000   0.5625000   0.0625000), wk =   0.0468750
        k(   41) = (   0.5625000  -0.3125000   0.9375000), wk =   0.0468750
        k(   42) = (   0.4375000  -0.1875000   0.8125000), wk =   0.0468750
        k(   43) = (   0.3125000  -0.0625000   0.6875000), wk =   0.0468750
        k(   44) = (  -0.1875000   0.6875000   0.1875000), wk =   0.0234375
        k(   45) = (   0.6875000  -0.1875000   1.0625000), wk =   0.0468750
        k(   46) = (   0.5625000  -0.0625000   0.9375000), wk =   0.0468750
        k(   47) = (   0.4375000   0.0625000   0.8125000), wk =   0.0468750
        k(   48) = (  -0.1875000  -1.0625000   0.1875000), wk =   0.0234375
        k(   49) = (  -0.3125000  -0.9375000   0.0625000), wk =   0.0468750
        k(   50) = (  -0.1875000  -0.8125000   0.1875000), wk =   0.0234375
        k(   51) = (  -0.3125000   0.3125000   0.3125000), wk =   0.0078125
        k(   52) = (  -0.4375000   0.4375000   0.1875000), wk =   0.0234375
        k(   53) = (   0.4375000  -0.4375000   1.0625000), wk =   0.0234375
        k(   54) = (   0.3125000  -0.3125000   0.9375000), wk =   0.0234375
        k(   55) = (  -0.3125000   0.5625000   0.3125000), wk =   0.0234375
        k(   56) = (   0.5625000  -0.3125000   1.1875000), wk =   0.0468750
        k(   57) = (   0.4375000  -0.1875000   1.0625000), wk =   0.0468750
        k(   58) = (  -0.3125000  -1.1875000   0.3125000), wk =   0.0234375
        k(   59) = (  -0.4375000   0.4375000   0.4375000), wk =   0.0078125
        k(   60) = (   0.4375000  -0.4375000   1.3125000), wk =   0.0234375

     Dense  grid:    66953 G-vectors     FFT dimensions: (  60,  60,  60)

     Smooth grid:    23589 G-vectors     FFT dimensions: (  45,  45,  45)

     Largest allocated arrays     est. size (Mb)     dimensions
        Kohn-Sham Wavefunctions         0.08 Mb     (     378,   14)
        NL pseudopotentials             0.21 Mb     (     378,   36)
        Each V/rho on FFT grid          0.44 Mb     (   28800)
        Each G-vector array             0.06 Mb     (    8370)
        G-vector shells                 0.00 Mb     (     532)
     Largest temporary arrays     est. size (Mb)     dimensions
        Auxiliary wavefunctions         0.32 Mb     (     378,   56)
        Each subspace H/S matrix        0.01 Mb     (      28,   28)
        Each <psi_i|beta_j> matrix      0.01 Mb     (      36,   14)
        Arrays for rho mixing           3.52 Mb     (   28800,    8)

     Initial potential from superposition of free atoms

     starting charge   25.99991, renormalised to   28.00000
     Starting wfc are   18 randomized atomic wfcs

     total cpu time spent up to now is        0.4 secs

     per-process dynamical memory:    15.3 Mb

     Self-consistent Calculation

     iteration #  1     ecut=    50.00 Ry     beta=0.70
     Davidson diagonalization with overlap
     ethr =  1.00E-02,  avg # of iterations =  2.5

     total cpu time spent up to now is        0.6 secs

     total energy              =    -317.48509366 Ry
     Harris-Foulkes estimate   =    -319.54916478 Ry
     estimated scf accuracy    <       2.51478894 Ry

     iteration #  2     ecut=    50.00 Ry     beta=0.70
     Davidson diagonalization with overlap
     ethr =  8.98E-03,  avg # of iterations =  3.0

     total cpu time spent up to now is        0.8 secs

     total energy              =    -318.39374970 Ry
     Harris-Foulkes estimate   =    -318.71198844 Ry
     estimated scf accuracy    <       0.47374358 Ry

     iteration #  3     ecut=    50.00 Ry     beta=0.70
     Davidson diagonalization with overlap
     ethr =  1.69E-03,  avg # of iterations =  2.0

     total cpu time spent up to now is        1.0 secs

     total energy              =    -318.48884621 Ry
     Harris-Foulkes estimate   =    -318.49041320 Ry
     estimated scf accuracy    <       0.00287413 Ry

     iteration #  4     ecut=    50.00 Ry     beta=0.70
     Davidson diagonalization with overlap
     ethr =  1.03E-05,  avg # of iterations =  3.0

     total cpu time spent up to now is        1.2 secs

     total energy              =    -318.48973052 Ry
     Harris-Foulkes estimate   =    -318.48984818 Ry
     estimated scf accuracy    <       0.00017420 Ry

     iteration #  5     ecut=    50.00 Ry     beta=0.70
     Davidson diagonalization with overlap
     ethr =  6.22E-07,  avg # of iterations =  3.0

     total cpu time spent up to now is        1.4 secs

     total energy              =    -318.48978398 Ry
     Harris-Foulkes estimate   =    -318.48978476 Ry
     estimated scf accuracy    <       0.00000156 Ry

     iteration #  6     ecut=    50.00 Ry     beta=0.70
     Davidson diagonalization with overlap
     ethr =  5.59E-09,  avg # of iterations =  4.0

     total cpu time spent up to now is        1.6 secs

     total energy              =    -318.48978476 Ry
     Harris-Foulkes estimate   =    -318.48978480 Ry
     estimated scf accuracy    <       0.00000007 Ry

     iteration #  7     ecut=    50.00 Ry     beta=0.70
     Davidson diagonalization with overlap
     ethr =  2.44E-10,  avg # of iterations =  3.1

     total cpu time spent up to now is        1.8 secs

     End of self-consistent calculation

          k =-0.0625 0.0625 0.0625 (  2936 PWs)   bands (ev):

   -14.6470 -14.6470 -14.6435 -14.5922 -14.5922 -14.3539 -14.3539 -14.3446
   -14.3328 -14.3328  -3.1661   5.3549   6.9317   6.9317

          k =-0.1875 0.1875-0.0625 (  2954 PWs)   bands (ev):

   -14.6592 -14.6541 -14.6402 -14.5816 -14.5751 -14.3772 -14.3677 -14.3424
   -14.3276 -14.3153  -2.9814   4.1922   6.2546   6.7946

          k =-0.3125 0.3125-0.1875 (  2956 PWs)   bands (ev):

   -14.6703 -14.6672 -14.6296 -14.5641 -14.5545 -14.3952 -14.3836 -14.3580
   -14.3107 -14.3032  -2.5426   2.6318   5.7624   6.3738

          k =-0.4375 0.4375-0.3125 (  2972 PWs)   bands (ev):

   -14.6757 -14.6754 -14.6193 -14.5515 -14.5442 -14.4027 -14.3934 -14.3733
   -14.3002 -14.2988  -1.9639   1.3361   5.5168   6.0164

          k = 0.4375-0.4375 0.5625 (  2960 PWs)   bands (ev):

   -14.6788 -14.6750 -14.6158 -14.5451 -14.5443 -14.4016 -14.3993 -14.3761
   -14.2998 -14.2957  -1.7077   0.8943   5.5161   5.8436

          k = 0.3125-0.3125 0.4375 (  2960 PWs)   bands (ev):

   -14.6762 -14.6708 -14.6233 -14.5545 -14.5457 -14.4045 -14.3895 -14.3663
   -14.3056 -14.2977  -2.1551   1.7098   5.7448   5.8932

          k = 0.1875-0.1875 0.3125 (  2949 PWs)   bands (ev):

   -14.6674 -14.6621 -14.6349 -14.5700 -14.5591 -14.3949 -14.3743 -14.3517
   -14.3157 -14.3069  -2.7130   3.1453   6.1605   6.1624

          k = 0.0625-0.0625 0.1875 (  2961 PWs)   bands (ev):

   -14.6533 -14.6505 -14.6443 -14.5883 -14.5803 -14.3751 -14.3546 -14.3416
   -14.3325 -14.3218  -3.0730   4.7023   6.5880   6.6203

          k =-0.0625 0.3125 0.0625 (  2948 PWs)   bands (ev):

   -14.6595 -14.6562 -14.6457 -14.5795 -14.5595 -14.4014 -14.3603 -14.3344
   -14.3270 -14.3151  -2.8877   3.9032   6.1194   6.1350

          k =-0.1875 0.4375-0.0625 (  2957 PWs)   bands (ev):

   -14.6725 -14.6673 -14.6333 -14.5636 -14.5363 -14.4265 -14.3770 -14.3452
   -14.3125 -14.3020  -2.5284   2.8014   5.3513   5.8974

          k =-0.3125 0.5625-0.1875 (  2972 PWs)   bands (ev):

   -14.6867 -14.6761 -14.6116 -14.5463 -14.5226 -14.4373 -14.3955 -14.3708
   -14.2995 -14.2877  -1.9690   1.5665   4.8447   5.5987

          k = 0.5625-0.3125 0.6875 (  2970 PWs)   bands (ev):

   -14.6930 -14.6806 -14.5960 -14.5328 -14.5259 -14.4283 -14.4125 -14.3888
   -14.2932 -14.2807  -1.5142   0.8092   4.5838   5.5322

          k = 0.4375-0.1875 0.5625 (  2977 PWs)   bands (ev):

   -14.6895 -14.6807 -14.5997 -14.5440 -14.5245 -14.4272 -14.3999 -14.3899
   -14.2929 -14.2854  -1.7814   1.2335   4.5879   5.7383

          k = 0.3125-0.0625 0.4375 (  2966 PWs)   bands (ev):

   -14.6774 -14.6749 -14.6188 -14.5598 -14.5361 -14.4198 -14.3858 -14.3638
   -14.3035 -14.2961  -2.3633   2.3719   4.9440   6.1242

          k = 0.1875 0.0625 0.3125 (  2946 PWs)   bands (ev):

   -14.6656 -14.6600 -14.6371 -14.5745 -14.5586 -14.3985 -14.3702 -14.3431
   -14.3217 -14.3080  -2.7991   3.5169   5.7953   6.4157

          k =-0.0625 0.5625 0.0625 (  2959 PWs)   bands (ev):

   -14.6744 -14.6714 -14.6374 -14.5487 -14.5062 -14.4633 -14.3890 -14.3346
   -14.3065 -14.3024  -2.2482   2.2650   5.2341   5.3221

          k =-0.1875 0.6875-0.0625 (  2972 PWs)   bands (ev):

   -14.6867 -14.6813 -14.6136 -14.5281 -14.4887 -14.4819 -14.4102 -14.3610
   -14.2933 -14.2876  -1.7362   1.3603   4.6720   5.0616

          k = 0.6875-0.1875 0.8125 (  2978 PWs)   bands (ev):

   -14.7010 -14.6863 -14.5836 -14.5086 -14.4918 -14.4763 -14.4330 -14.3921
   -14.2865 -14.2718  -1.1655   0.5640   4.0976   5.0308

          k = 0.5625-0.0625 0.6875 (  2979 PWs)   bands (ev):

   -14.7034 -14.6875 -14.5752 -14.5135 -14.4957 -14.4598 -14.4406 -14.4017
   -14.2846 -14.2696  -1.2294   0.6455   3.8857   5.2827

          k = 0.4375 0.0625 0.5625 (  2974 PWs)   bands (ev):

   -14.6923 -14.6835 -14.5928 -14.5433 -14.5147 -14.4383 -14.4012 -14.3954
   -14.2889 -14.2830  -1.8095   1.3992   4.2639   5.7148

          k = 0.3125 0.1875 0.4375 (  2962 PWs)   bands (ev):

   -14.6776 -14.6715 -14.6215 -14.5578 -14.5408 -14.4132 -14.3863 -14.3641
   -14.3057 -14.2964  -2.2922   2.0942   5.3076   6.0310

          k =-0.0625 0.8125 0.0625 (  2972 PWs)   bands (ev):

   -14.6866 -14.6842 -14.6069 -14.5275 -14.5053 -14.4462 -14.4319 -14.3662
   -14.2890 -14.2865  -1.2736   0.7080   4.7044   4.8293

          k = 0.8125-0.0625 0.9375 (  2969 PWs)   bands (ev):

   -14.6946 -14.6893 -14.5755 -14.5456 -14.4816 -14.4565 -14.4277 -14.3985
   -14.2825 -14.2771  -0.6567  -0.0076   4.3638   4.6814

          k = 0.6875 0.0625 0.8125 (  2972 PWs)   bands (ev):

   -14.7039 -14.6888 -14.5711 -14.5060 -14.4871 -14.4647 -14.4540 -14.4029
   -14.2828 -14.2680  -0.7884   0.1566   3.9229   4.9189

          k = 0.5625 0.1875 0.6875 (  2973 PWs)   bands (ev):

   -14.6996 -14.6847 -14.5834 -14.5214 -14.5104 -14.4458 -14.4278 -14.3966
   -14.2880 -14.2734  -1.3311   0.6887   4.1440   5.3661

          k = 0.4375 0.3125 0.5625 (  2974 PWs)   bands (ev):

   -14.6843 -14.6768 -14.6093 -14.5449 -14.5366 -14.4127 -14.3993 -14.3814
   -14.2977 -14.2904  -1.7394   1.0271   5.0869   5.7785

          k =-0.0625-0.9375 0.0625 (  2975 PWs)   bands (ev):

   -14.6894 -14.6873 -14.5845 -14.5572 -14.4811 -14.4562 -14.4171 -14.3895
   -14.2848 -14.2824  -0.6750  -0.0095   4.5962   4.7281

          k =-0.1875-0.8125-0.0625 (  2972 PWs)   bands (ev):

   -14.6919 -14.6866 -14.5963 -14.5182 -14.5056 -14.4542 -14.4325 -14.3777
   -14.2864 -14.2808  -1.2267   0.6595   4.4677   4.8090

          k =-0.3125-0.6875-0.1875 (  2981 PWs)   bands (ev):

   -14.6949 -14.6817 -14.5986 -14.5291 -14.5027 -14.4622 -14.4123 -14.3802
   -14.2926 -14.2788  -1.5853   1.0545   4.4214   5.2570

          k =-0.0625-0.6875 0.0625 (  2969 PWs)   bands (ev):

   -14.6812 -14.6789 -14.6248 -14.5283 -14.4959 -14.4764 -14.4092 -14.3475
   -14.2965 -14.2936  -1.8004   1.4701   4.9188   5.0292

          k =-0.1875-0.5625-0.0625 (  2967 PWs)   bands (ev):

   -14.6798 -14.6749 -14.6259 -14.5479 -14.5104 -14.4568 -14.3910 -14.3502
   -14.3024 -14.2952  -2.1724   2.0782   4.9701   5.4308

          k =-0.0625-0.4375 0.0625 (  2947 PWs)   bands (ev):

   -14.6666 -14.6637 -14.6441 -14.5659 -14.5343 -14.4314 -14.3725 -14.3300
   -14.3170 -14.3102  -2.6119   3.0809   5.6409   5.6975

          k =-0.1875 0.1875 0.1875 (  2950 PWs)   bands (ev):

   -14.6598 -14.6598 -14.6374 -14.5740 -14.5740 -14.3749 -14.3749 -14.3516
   -14.3161 -14.3161  -2.8915   3.7450   6.5363   6.5363

          k =-0.3125 0.3125 0.0625 (  2962 PWs)   bands (ev):

   -14.6715 -14.6673 -14.6278 -14.5679 -14.5518 -14.3999 -14.3832 -14.3530
   -14.3138 -14.3015  -2.6233   2.9674   5.3583   6.5046

          k =-0.4375 0.4375-0.0625 (  2961 PWs)   bands (ev):

   -14.6841 -14.6801 -14.6045 -14.5542 -14.5287 -14.4206 -14.3937 -14.3825
   -14.2929 -14.2922  -2.1213   1.8903   4.5634   6.0877

          k = 0.4375-0.4375 0.8125 (  2978 PWs)   bands (ev):

   -14.6950 -14.6825 -14.5907 -14.5351 -14.5206 -14.4257 -14.4187 -14.3949
   -14.2903 -14.2794  -1.5591   0.9313   4.3370   5.6680

          k = 0.3125-0.3125 0.6875 (  2973 PWs)   bands (ev):

   -14.6947 -14.6796 -14.5987 -14.5302 -14.5171 -14.4443 -14.4121 -14.3819
   -14.2947 -14.2787  -1.5447   0.9085   4.5149   5.4321

          k = 0.1875-0.1875 0.5625 (  2959 PWs)   bands (ev):

   -14.6839 -14.6728 -14.6214 -14.5471 -14.5158 -14.4490 -14.3926 -14.3560
   -14.3041 -14.2904  -2.1029   1.8773   4.9996   5.4414

          k =-0.1875 0.4375 0.1875 (  2958 PWs)   bands (ev):

   -14.6755 -14.6667 -14.6300 -14.5615 -14.5392 -14.4208 -14.3798 -14.3514
   -14.3119 -14.2989  -2.4486   2.5132   5.5537   5.7800

          k =-0.3125 0.5625 0.0625 (  2976 PWs)   bands (ev):

   -14.6854 -14.6806 -14.6091 -14.5468 -14.5150 -14.4467 -14.3946 -14.3725
   -14.2944 -14.2897  -2.0240   1.7671   4.6021   5.6015

          k = 0.5625-0.3125 0.9375 (  2983 PWs)   bands (ev):

   -14.6985 -14.6880 -14.5810 -14.5266 -14.4960 -14.4632 -14.4203 -14.3994
   -14.2845 -14.2751  -1.4387   0.9131   4.0718   5.2142

          k = 0.4375-0.1875 0.8125 (  2979 PWs)   bands (ev):

   -14.7021 -14.6889 -14.5743 -14.5128 -14.4922 -14.4700 -14.4344 -14.4026
   -14.2835 -14.2706  -1.1379   0.5214   4.0338   5.0009

          k = 0.3125-0.0625 0.6875 (  2982 PWs)   bands (ev):

   -14.6925 -14.6860 -14.5965 -14.5287 -14.4914 -14.4748 -14.4125 -14.3817
   -14.2875 -14.2816  -1.6125   1.1630   4.3542   5.1204

          k =-0.1875 0.6875 0.1875 (  2973 PWs)   bands (ev):

   -14.6917 -14.6793 -14.6088 -14.5282 -14.4925 -14.4764 -14.4107 -14.3669
   -14.2956 -14.2821  -1.6832   1.2439   4.5544   5.1725

          k = 0.6875-0.1875 1.0625 (  2971 PWs)   bands (ev):

   -14.6974 -14.6907 -14.5798 -14.5073 -14.5032 -14.4655 -14.4342 -14.3952
   -14.2815 -14.2751  -1.1396   0.5655   4.2081   4.7505

          k = 0.5625-0.0625 0.9375 (  2987 PWs)   bands (ev):

   -14.7026 -14.6973 -14.5482 -14.5141 -14.4865 -14.4619 -14.4526 -14.4238
   -14.2746 -14.2694  -0.6098  -0.0051   4.0364   4.4319

          k = 0.4375 0.0625 0.8125 (  2984 PWs)   bands (ev):

   -14.7019 -14.6932 -14.5657 -14.5072 -14.4899 -14.4739 -14.4403 -14.4097
   -14.2790 -14.2705  -1.0252   0.4366   4.0004   4.7528

          k =-0.1875-1.0625 0.1875 (  2967 PWs)   bands (ev):

   -14.7002 -14.6872 -14.5766 -14.5282 -14.4832 -14.4554 -14.4444 -14.3974
   -14.2845 -14.2715  -0.7029   0.0508   4.0890   4.8928

          k =-0.3125-0.9375 0.0625 (  2973 PWs)   bands (ev):

   -14.6996 -14.6939 -14.5608 -14.5284 -14.4836 -14.4579 -14.4428 -14.4124
   -14.2779 -14.2721  -0.6297  -0.0057   4.1536   4.5392

          k =-0.1875-0.8125 0.1875 (  2966 PWs)   bands (ev):

   -14.6973 -14.6843 -14.5924 -14.5066 -14.5062 -14.4644 -14.4327 -14.3819
   -14.2887 -14.2751  -1.2021   0.6212   4.2461   4.9871

          k =-0.3125 0.3125 0.3125 (  2950 PWs)   bands (ev):

   -14.6694 -14.6694 -14.6291 -14.5566 -14.5566 -14.3900 -14.3900 -14.3626
   -14.3052 -14.3052  -2.3842   2.1728   6.1522   6.1522

          k =-0.4375 0.4375 0.1875 (  2955 PWs)   bands (ev):

   -14.6805 -14.6780 -14.6104 -14.5532 -14.5356 -14.4127 -14.3922 -14.3795
   -14.2959 -14.2946  -2.0658   1.6528   4.9423   6.0653

          k = 0.4375-0.4375 1.0625 (  2975 PWs)   bands (ev):

   -14.6991 -14.6850 -14.5826 -14.5314 -14.5084 -14.4382 -14.4270 -14.3986
   -14.2870 -14.2750  -1.5396   1.0181   4.0146   5.6247

          k = 0.3125-0.3125 0.9375 (  2979 PWs)   bands (ev):

   -14.7053 -14.6870 -14.5753 -14.4925 -14.4911 -14.4777 -14.4501 -14.3997
   -14.2851 -14.2671  -1.0042   0.3864   3.8305   5.2046

          k =-0.3125 0.5625 0.3125 (  2971 PWs)   bands (ev):

   -14.6856 -14.6745 -14.6126 -14.5454 -14.5322 -14.4237 -14.3972 -14.3727
   -14.3012 -14.2884  -1.8678   1.2841   5.0995   5.6425

          k = 0.5625-0.3125 1.1875 (  2980 PWs)   bands (ev):

   -14.6969 -14.6846 -14.5876 -14.5291 -14.5094 -14.4485 -14.4168 -14.3945
   -14.2886 -14.2766  -1.4595   0.8521   4.2768   5.3254

          k = 0.4375-0.1875 1.0625 (  2980 PWs)   bands (ev):

   -14.7045 -14.6919 -14.5638 -14.4993 -14.4872 -14.4759 -14.4502 -14.4102
   -14.2800 -14.2677  -0.9015   0.2925   3.8952   4.8307

          k =-0.3125-1.1875 0.3125 (  2970 PWs)   bands (ev):

   -14.7016 -14.6841 -14.5847 -14.5108 -14.5026 -14.4633 -14.4315 -14.3921
   -14.2887 -14.2711  -1.2279   0.5939   4.0716   5.2822

          k =-0.4375 0.4375 0.4375 (  2965 PWs)   bands (ev):

   -14.6737 -14.6737 -14.6230 -14.5483 -14.5483 -14.3966 -14.3966 -14.3705
   -14.3011 -14.3011  -1.8349   1.0616   5.9397   5.9397

          k = 0.4375-0.4375 1.3125 (  2967 PWs)   bands (ev):

   -14.6874 -14.6787 -14.6031 -14.5398 -14.5349 -14.4103 -14.4087 -14.3867
   -14.2953 -14.2871  -1.6118   0.8599   4.8789   5.7463

     highest occupied level (ev):     6.9317

!    total energy              =    -318.48978479 Ry
     Harris-Foulkes estimate   =    -318.48978479 Ry
     estimated scf accuracy    <          2.6E-09 Ry

     The total energy is the sum of the following terms:

     one-electron contribution =    -162.27721894 Ry
     hartree contribution      =      97.63201629 Ry
     xc contribution           =     -85.96124467 Ry
     ewald contribution        =    -167.88333747 Ry

     convergence has been achieved in   7 iterations

     Forces acting on atoms (Ry/au):

     atom    1 type  1   force =    -0.00000000   -0.00000000    0.00000000
     atom    2 type  1   force =    -0.00000000   -0.00000000   -0.00000000

     Total force =     0.000000     Total SCF correction =     0.000000


     entering subroutine stress ...

          total   stress  (Ry/bohr**3)                   (kbar)     P=  -18.53
  -0.00012600  -0.00000000   0.00000000        -18.53     -0.00      0.00
  -0.00000000  -0.00012600  -0.00000000         -0.00    -18.53     -0.00
   0.00000000   0.00000000  -0.00012600          0.00      0.00    -18.53


     Writing output data file sn.alpha.save
 
     init_run     :      0.25s CPU      0.28s WALL (       1 calls)
     electrons    :      1.33s CPU      1.46s WALL (       1 calls)
     forces       :      0.07s CPU      0.07s WALL (       1 calls)
     stress       :      0.24s CPU      0.23s WALL (       1 calls)

     Called by init_run:
     wfcinit      :      0.02s CPU      0.03s WALL (       1 calls)
     potinit      :      0.02s CPU      0.03s WALL (       1 calls)

     Called by electrons:
     c_bands      :      0.56s CPU      0.57s WALL (       7 calls)
     sum_band     :      0.42s CPU      0.44s WALL (       7 calls)
     v_of_rho     :      0.12s CPU      0.13s WALL (       8 calls)
     newd         :      0.22s CPU      0.23s WALL (       8 calls)
     mix_rho      :      0.01s CPU      0.01s WALL (       7 calls)

     Called by c_bands:
     init_us_2    :      0.00s CPU      0.01s WALL (      51 calls)
     cegterg      :      0.48s CPU      0.48s WALL (      21 calls)

     Called by sum_band:
     sum_band:bec :      0.00s CPU      0.00s WALL (      21 calls)
     addusdens    :      0.32s CPU      0.33s WALL (       7 calls)

     Called by *egterg:
     h_psi        :      0.34s CPU      0.33s WALL (      91 calls)
     s_psi        :      0.01s CPU      0.01s WALL (      91 calls)
     g_psi        :      0.00s CPU      0.00s WALL (      67 calls)
     cdiaghg      :      0.11s CPU      0.11s WALL (      88 calls)

     Called by h_psi:
     add_vuspsi   :      0.01s CPU      0.01s WALL (      91 calls)

     General routines
     calbec       :      0.02s CPU      0.02s WALL (     127 calls)
     fft          :      0.06s CPU      0.08s WALL (     149 calls)
     ffts         :      0.00s CPU      0.00s WALL (      15 calls)
     fftw         :      0.28s CPU      0.30s WALL (    2314 calls)
     interpolate  :      0.00s CPU      0.01s WALL (      15 calls)
     davcio       :      0.00s CPU      0.12s WALL (       3 calls)
 
     Parallel routines
     fft_scatter  :      0.10s CPU      0.10s WALL (    2478 calls)
 
     PWSCF        :     2.10s CPU         9.35s WALL

 
   This run was terminated on:   0:56:24   7Apr2018            

=------------------------------------------------------------------------------=
   JOB DONE.
=------------------------------------------------------------------------------=
Application 30444012 resources: utime ~1779s, stime ~35s, Rss ~54368, inblocks ~1799912, outblocks ~1488476
