
     Program PWSCF v.6.1 (svn rev. 13369) starts on 11Nov2017 at 15:30:31 

     This program is part of the open-source Quantum ESPRESSO suite
     for quantum simulation of materials; please cite
         "P. Giannozzi et al., J. Phys.:Condens. Matter 21 395502 (2009);
          URL http://www.quantum-espresso.org", 
     in publications or presentations arising from this work. More details at
     http://www.quantum-espresso.org/quote

     Parallel version (MPI), running on     4 processors
     R & G space division:  proc/nbgrp/npool/nimage =       4
     Waiting for input...
     Reading input from standard input
     Message from routine read_cards :
     DEPRECATED: no units specified in ATOMIC_POSITIONS card
     Message from routine read_cards :
     ATOMIC_POSITIONS: units set to alat

     Current dimensions of program PWSCF are:
     Max number of different atomic species (ntypx) = 10
     Max number of k-points (npk) =  40000
     Max angular momentum in pseudopotentials (lmaxx) =  3

     Subspace diagonalization in iterative solution of the eigenvalue problem:
     a serial algorithm will be used


     Parallelization info
     --------------------
     sticks:   dense  smooth     PW     G-vecs:    dense   smooth      PW
     Min         364     185     58                 9170     3276     569
     Max         365     187     59                 9173     3277     570
     Sum        1459     745    235                36685    13107    2277



     bravais-lattice index     =            2
     lattice parameter (alat)  =      10.3000  a.u.
     unit-cell volume          =     273.1818 (a.u.)^3
     number of atoms/cell      =            2
     number of atomic types    =            1
     number of electrons       =        28.00
     number of Kohn-Sham states=           14
     kinetic-energy cutoff     =      50.0000  Ry
     charge density cutoff     =     400.0000  Ry
     convergence threshold     =      1.0E-08
     mixing beta               =       0.7000
     number of iterations used =            8  plain     mixing
     Exchange-correlation      =  SLA  PW   PBX  PBC ( 1  4  3  4 0 0)

     celldm(1)=  10.300000  celldm(2)=   0.000000  celldm(3)=   0.000000
     celldm(4)=   0.000000  celldm(5)=   0.000000  celldm(6)=   0.000000

     crystal axes: (cart. coord. in units of alat)
               a(1) = (  -0.500000   0.000000   0.500000 )  
               a(2) = (   0.000000   0.500000   0.500000 )  
               a(3) = (  -0.500000   0.500000   0.000000 )  

     reciprocal axes: (cart. coord. in units 2 pi/alat)
               b(1) = ( -1.000000 -1.000000  1.000000 )  
               b(2) = (  1.000000  1.000000  1.000000 )  
               b(3) = ( -1.000000  1.000000 -1.000000 )  


     PseudoPot. # 1 for Sn read from file:
     /home/s1333534/quantum_espresso/qe-6.1/pseudo/sn_pbe_v1.4.uspp.F.UPF
     MD5 check sum: 469debedee59599fedebd795477fea03
     Pseudo is Ultrasoft + core correction, Zval = 14.0
     Generated by new atomic code, or converted to UPF format
     Using radial grid of  891 points,  6 beta functions with: 
                l(1) =   0
                l(2) =   0
                l(3) =   1
                l(4) =   1
                l(5) =   2
                l(6) =   2
     Q(r) pseudized with  8 coefficients,  rinner =    1.350   1.350   1.350
                                                       1.350   1.350

     atomic species   valence    mass     pseudopotential
        Sn            14.00   118.71000     Sn( 1.00)

     48 Sym. Ops., with inversion, found (24 have fractional translation)



   Cartesian axes

     site n.     atom                  positions (alat units)
         1           Sn  tau(   1) = (   0.0000000   0.0000000   0.0000000  )
         2           Sn  tau(   2) = (   0.2500000   0.2500000   0.2500000  )

     number of k points=    60
                       cart. coord. in units 2pi/alat
        k(    1) = (  -0.0625000   0.0625000   0.0625000), wk =   0.0078125
        k(    2) = (  -0.1875000   0.1875000  -0.0625000), wk =   0.0234375
        k(    3) = (  -0.3125000   0.3125000  -0.1875000), wk =   0.0234375
        k(    4) = (  -0.4375000   0.4375000  -0.3125000), wk =   0.0234375
        k(    5) = (   0.4375000  -0.4375000   0.5625000), wk =   0.0234375
        k(    6) = (   0.3125000  -0.3125000   0.4375000), wk =   0.0234375
        k(    7) = (   0.1875000  -0.1875000   0.3125000), wk =   0.0234375
        k(    8) = (   0.0625000  -0.0625000   0.1875000), wk =   0.0234375
        k(    9) = (  -0.0625000   0.3125000   0.0625000), wk =   0.0234375
        k(   10) = (  -0.1875000   0.4375000  -0.0625000), wk =   0.0468750
        k(   11) = (  -0.3125000   0.5625000  -0.1875000), wk =   0.0468750
        k(   12) = (   0.5625000  -0.3125000   0.6875000), wk =   0.0468750
        k(   13) = (   0.4375000  -0.1875000   0.5625000), wk =   0.0468750
        k(   14) = (   0.3125000  -0.0625000   0.4375000), wk =   0.0468750
        k(   15) = (   0.1875000   0.0625000   0.3125000), wk =   0.0468750
        k(   16) = (  -0.0625000   0.5625000   0.0625000), wk =   0.0234375
        k(   17) = (  -0.1875000   0.6875000  -0.0625000), wk =   0.0468750
        k(   18) = (   0.6875000  -0.1875000   0.8125000), wk =   0.0468750
        k(   19) = (   0.5625000  -0.0625000   0.6875000), wk =   0.0468750
        k(   20) = (   0.4375000   0.0625000   0.5625000), wk =   0.0468750
        k(   21) = (   0.3125000   0.1875000   0.4375000), wk =   0.0468750
        k(   22) = (  -0.0625000   0.8125000   0.0625000), wk =   0.0234375
        k(   23) = (   0.8125000  -0.0625000   0.9375000), wk =   0.0468750
        k(   24) = (   0.6875000   0.0625000   0.8125000), wk =   0.0468750
        k(   25) = (   0.5625000   0.1875000   0.6875000), wk =   0.0468750
        k(   26) = (   0.4375000   0.3125000   0.5625000), wk =   0.0468750
        k(   27) = (  -0.0625000  -0.9375000   0.0625000), wk =   0.0234375
        k(   28) = (  -0.1875000  -0.8125000  -0.0625000), wk =   0.0468750
        k(   29) = (  -0.3125000  -0.6875000  -0.1875000), wk =   0.0468750
        k(   30) = (  -0.0625000  -0.6875000   0.0625000), wk =   0.0234375
        k(   31) = (  -0.1875000  -0.5625000  -0.0625000), wk =   0.0468750
        k(   32) = (  -0.0625000  -0.4375000   0.0625000), wk =   0.0234375
        k(   33) = (  -0.1875000   0.1875000   0.1875000), wk =   0.0078125
        k(   34) = (  -0.3125000   0.3125000   0.0625000), wk =   0.0234375
        k(   35) = (  -0.4375000   0.4375000  -0.0625000), wk =   0.0234375
        k(   36) = (   0.4375000  -0.4375000   0.8125000), wk =   0.0234375
        k(   37) = (   0.3125000  -0.3125000   0.6875000), wk =   0.0234375
        k(   38) = (   0.1875000  -0.1875000   0.5625000), wk =   0.0234375
        k(   39) = (  -0.1875000   0.4375000   0.1875000), wk =   0.0234375
        k(   40) = (  -0.3125000   0.5625000   0.0625000), wk =   0.0468750
        k(   41) = (   0.5625000  -0.3125000   0.9375000), wk =   0.0468750
        k(   42) = (   0.4375000  -0.1875000   0.8125000), wk =   0.0468750
        k(   43) = (   0.3125000  -0.0625000   0.6875000), wk =   0.0468750
        k(   44) = (  -0.1875000   0.6875000   0.1875000), wk =   0.0234375
        k(   45) = (   0.6875000  -0.1875000   1.0625000), wk =   0.0468750
        k(   46) = (   0.5625000  -0.0625000   0.9375000), wk =   0.0468750
        k(   47) = (   0.4375000   0.0625000   0.8125000), wk =   0.0468750
        k(   48) = (  -0.1875000  -1.0625000   0.1875000), wk =   0.0234375
        k(   49) = (  -0.3125000  -0.9375000   0.0625000), wk =   0.0468750
        k(   50) = (  -0.1875000  -0.8125000   0.1875000), wk =   0.0234375
        k(   51) = (  -0.3125000   0.3125000   0.3125000), wk =   0.0078125
        k(   52) = (  -0.4375000   0.4375000   0.1875000), wk =   0.0234375
        k(   53) = (   0.4375000  -0.4375000   1.0625000), wk =   0.0234375
        k(   54) = (   0.3125000  -0.3125000   0.9375000), wk =   0.0234375
        k(   55) = (  -0.3125000   0.5625000   0.3125000), wk =   0.0234375
        k(   56) = (   0.5625000  -0.3125000   1.1875000), wk =   0.0468750
        k(   57) = (   0.4375000  -0.1875000   1.0625000), wk =   0.0468750
        k(   58) = (  -0.3125000  -1.1875000   0.3125000), wk =   0.0234375
        k(   59) = (  -0.4375000   0.4375000   0.4375000), wk =   0.0078125
        k(   60) = (   0.4375000  -0.4375000   1.3125000), wk =   0.0234375

     Dense  grid:    36685 G-vectors     FFT dimensions: (  48,  48,  48)

     Smooth grid:    13107 G-vectors     FFT dimensions: (  36,  36,  36)

     Estimated max dynamical RAM per process >      11.85MB

     Estimated total allocated dynamical RAM >      47.41MB

     Initial potential from superposition of free atoms

     starting charge   25.99991, renormalised to   28.00000
     Starting wfc are   18 randomized atomic wfcs

     total cpu time spent up to now is        0.9 secs

     per-process dynamical memory:    17.1 Mb

     Self-consistent Calculation

     iteration #  1     ecut=    50.00 Ry     beta=0.70
     Davidson diagonalization with overlap
     ethr =  1.00E-02,  avg # of iterations =  3.0

     total cpu time spent up to now is        2.3 secs

     total energy              =    -317.19982167 Ry
     Harris-Foulkes estimate   =    -319.03914583 Ry
     estimated scf accuracy    <       2.25520616 Ry

     iteration #  2     ecut=    50.00 Ry     beta=0.70
     Davidson diagonalization with overlap
     ethr =  8.05E-03,  avg # of iterations =  3.0

     total cpu time spent up to now is        3.9 secs

     total energy              =    -318.01438815 Ry
     Harris-Foulkes estimate   =    -318.30837594 Ry
     estimated scf accuracy    <       0.44307169 Ry

     iteration #  3     ecut=    50.00 Ry     beta=0.70
     Davidson diagonalization with overlap
     ethr =  1.58E-03,  avg # of iterations =  2.0

     total cpu time spent up to now is        5.3 secs

     total energy              =    -318.10322379 Ry
     Harris-Foulkes estimate   =    -318.10441488 Ry
     estimated scf accuracy    <       0.00223607 Ry

     iteration #  4     ecut=    50.00 Ry     beta=0.70
     Davidson diagonalization with overlap
     ethr =  7.99E-06,  avg # of iterations =  3.0

     total cpu time spent up to now is        6.9 secs

     total energy              =    -318.10402114 Ry
     Harris-Foulkes estimate   =    -318.10413487 Ry
     estimated scf accuracy    <       0.00016617 Ry

     iteration #  5     ecut=    50.00 Ry     beta=0.70
     Davidson diagonalization with overlap
     ethr =  5.93E-07,  avg # of iterations =  2.9

     total cpu time spent up to now is        8.3 secs

     total energy              =    -318.10407339 Ry
     Harris-Foulkes estimate   =    -318.10407661 Ry
     estimated scf accuracy    <       0.00000513 Ry

     iteration #  6     ecut=    50.00 Ry     beta=0.70
     Davidson diagonalization with overlap
     ethr =  1.83E-08,  avg # of iterations =  2.5

     total cpu time spent up to now is        9.8 secs

     total energy              =    -318.10407462 Ry
     Harris-Foulkes estimate   =    -318.10407465 Ry
     estimated scf accuracy    <       0.00000005 Ry

     iteration #  7     ecut=    50.00 Ry     beta=0.70
     Davidson diagonalization with overlap
     ethr =  1.92E-10,  avg # of iterations =  3.7

     total cpu time spent up to now is       11.5 secs

     End of self-consistent calculation

          k =-0.0625 0.0625 0.0625 (  1648 PWs)   bands (ev):

    -7.2262  -7.2262  -7.2084  -7.0324  -7.0324  -5.9590  -5.9590  -5.9543
    -5.7429  -5.7429   1.4890  16.1395  16.8723  16.8723

          k =-0.1875 0.1875-0.0625 (  1625 PWs)   bands (ev):

    -7.2895  -7.2510  -7.2043  -6.9775  -6.9362  -6.0358  -6.0202  -5.9057
    -5.7586  -5.6878   1.8300  13.9906  15.2698  16.6256

          k =-0.3125 0.3125-0.1875 (  1630 PWs)   bands (ev):

    -7.3335  -7.3050  -7.1667  -6.9000  -6.8428  -6.0943  -6.0781  -5.9472
    -5.7236  -5.6541   2.6704  10.9226  14.5014  15.6747

          k =-0.4375 0.4375-0.3125 (  1636 PWs)   bands (ev):

    -7.3419  -7.3378  -7.1310  -6.8534  -6.8104  -6.1075  -6.0927  -6.0163
    -5.6820  -5.6533   3.9110   8.3397  14.1542  14.9124

          k = 0.4375-0.4375 0.5625 (  1635 PWs)   bands (ev):

    -7.3530  -7.3314  -7.1239  -6.8264  -6.8233  -6.1273  -6.0542  -6.0517
    -5.6754  -5.6535   4.6095   7.2998  14.2429  14.5229

          k = 0.3125-0.3125 0.4375 (  1634 PWs)   bands (ev):

    -7.3513  -7.3147  -7.1498  -6.8612  -6.8137  -6.1538  -6.0240  -6.0130
    -5.7034  -5.6466   3.4718   9.1163  14.5727  14.7354

          k = 0.1875-0.1875 0.3125 (  1624 PWs)   bands (ev):

    -7.3226  -7.2854  -7.1871  -6.9242  -6.8624  -6.1317  -5.9733  -5.9643
    -5.7348  -5.6659   2.3373  11.9107  15.0685  15.5421

          k = 0.0625-0.0625 0.1875 (  1625 PWs)   bands (ev):

    -7.2638  -7.2356  -7.2149  -7.0122  -6.9620  -6.0524  -5.9327  -5.9285
    -5.7651  -5.7049   1.6598  15.0615  15.9426  16.3956

          k =-0.0625 0.3125 0.0625 (  1632 PWs)   bands (ev):

    -7.2973  -7.2548  -7.2328  -6.9688  -6.8595  -6.1871  -5.8945  -5.8833
    -5.8025  -5.6815   2.0006  13.9376  14.9443  15.2866

          k =-0.1875 0.4375-0.0625 (  1632 PWs)   bands (ev):

    -7.3475  -7.3002  -7.1935  -6.8934  -6.7484  -6.3068  -5.9624  -5.8762
    -5.7671  -5.6471   2.6754  11.9106  13.4552  14.7561

          k =-0.3125 0.5625-0.1875 (  1627 PWs)   bands (ev):

    -7.3978  -7.3378  -7.1101  -6.8177  -6.6937  -6.3412  -6.0342  -6.0067
    -5.6826  -5.5980   3.8017   9.2929  12.8785  13.9817

          k = 0.5625-0.3125 0.6875 (  1627 PWs)   bands (ev):

    -7.4201  -7.3579  -7.0472  -6.7635  -6.7191  -6.2872  -6.1272  -6.0734
    -5.6354  -5.5773   4.9279   7.5358  12.5141  13.7730

          k = 0.4375-0.1875 0.5625 (  1623 PWs)   bands (ev):

    -7.4028  -7.3661  -7.0509  -6.8178  -6.7022  -6.2709  -6.1204  -6.0530
    -5.6329  -5.5971   4.2311   8.5608  12.3564  14.2693

          k = 0.3125-0.0625 0.4375 (  1624 PWs)   bands (ev):

    -7.3655  -7.3359  -7.1252  -6.8825  -6.7460  -6.2537  -6.0653  -5.9231
    -5.7190  -5.6178   3.0034  11.0013  12.6643  15.1822

          k = 0.1875 0.0625 0.3125 (  1626 PWs)   bands (ev):

    -7.3210  -7.2720  -7.1987  -6.9454  -6.8560  -6.1601  -5.9890  -5.8683
    -5.7843  -5.6611   2.1695  12.9279  14.3347  15.9163

          k =-0.0625 0.5625 0.0625 (  1629 PWs)   bands (ev):

    -7.3375  -7.3100  -7.2450  -6.8136  -6.6060  -6.4984  -5.9906  -5.8050
    -5.7353  -5.6848   3.1839  11.4942  13.1658  13.2923

          k =-0.1875 0.6875-0.0625 (  1636 PWs)   bands (ev):

    -7.3911  -7.3552  -7.1450  -6.7137  -6.6119  -6.4955  -6.1014  -5.9321
    -5.6532  -5.6095   4.1651   9.8123  12.0064  12.7463

          k = 0.6875-0.1875 0.8125 (  1637 PWs)   bands (ev):

    -7.4562  -7.3776  -7.0194  -6.6292  -6.5953  -6.4812  -6.2282  -6.0777
    -5.6044  -5.5273   5.4100   8.0879  10.9238  12.6881

          k = 0.5625-0.0625 0.6875 (  1628 PWs)   bands (ev):

    -7.4659  -7.3918  -6.9718  -6.6658  -6.5494  -6.4428  -6.2975  -6.1091
    -5.5817  -5.5215   5.3346   8.2121  10.4028  13.2466

          k = 0.4375 0.0625 0.5625 (  1624 PWs)   bands (ev):

    -7.4135  -7.3852  -7.0215  -6.8128  -6.6420  -6.3301  -6.1594  -6.0541
    -5.6056  -5.5885   4.1113   9.4062  11.2997  14.2067

          k = 0.3125 0.1875 0.4375 (  1624 PWs)   bands (ev):

    -7.3618  -7.3205  -7.1405  -6.8742  -6.7782  -6.2132  -6.0431  -5.9572
    -5.7146  -5.6292   3.1623  10.0451  13.7114  15.0108

          k =-0.0625 0.8125 0.0625 (  1633 PWs)   bands (ev):

    -7.3733  -7.3559  -7.1479  -6.8060  -6.5904  -6.3258  -6.2116  -5.9399
    -5.6291  -5.6137   5.0021   8.7155  12.0196  12.3089

          k = 0.8125-0.0625 0.9375 (  1642 PWs)   bands (ev):

    -7.4171  -7.3842  -7.0070  -6.8734  -6.4727  -6.3427  -6.2423  -6.1011
    -5.5883  -5.5588   6.2136   7.4076  11.2556  11.9723

          k = 0.6875 0.0625 0.8125 (  1637 PWs)   bands (ev):

    -7.4693  -7.3888  -6.9765  -6.6686  -6.5104  -6.4226  -6.3419  -6.1208
    -5.5831  -5.5079   6.1803   7.5502  10.3034  12.4704

          k = 0.5625 0.1875 0.6875 (  1629 PWs)   bands (ev):

    -7.4502  -7.3784  -7.0016  -6.7067  -6.6341  -6.3769  -6.2165  -6.0934
    -5.6027  -5.5412   5.2366   7.7306  11.3515  13.4153

          k = 0.4375 0.3125 0.5625 (  1633 PWs)   bands (ev):

    -7.3803  -7.3420  -7.0936  -6.8231  -6.7751  -6.1922  -6.0745  -6.0515
    -5.6637  -5.6222   4.4321   7.7794  13.4973  14.3718

          k =-0.0625-0.9375 0.0625 (  1632 PWs)   bands (ev):

    -7.3822  -7.3664  -7.0584  -6.9394  -6.4648  -6.3367  -6.1876  -6.0544
    -5.6040  -5.5909   6.1259   7.3733  11.7977  12.1066

          k =-0.1875-0.8125-0.0625 (  1639 PWs)   bands (ev):

    -7.4079  -7.3742  -7.0859  -6.7524  -6.5973  -6.3653  -6.2175  -6.0051
    -5.6110  -5.5785   5.1291   8.6268  11.5115  12.2172

          k =-0.3125-0.6875-0.1875 (  1631 PWs)   bands (ev):

    -7.4311  -7.3586  -7.0697  -6.7300  -6.6069  -6.4582  -6.1167  -6.0337
    -5.6410  -5.5607   4.5666   8.6560  11.9028  13.1618

          k =-0.0625-0.6875 0.0625 (  1639 PWs)   bands (ev):

    -7.3569  -7.3370  -7.2114  -6.7086  -6.6568  -6.4671  -6.0946  -5.8492
    -5.6757  -5.6529   4.0174  10.1122  12.4693  12.7079

          k =-0.1875-0.5625-0.0625 (  1636 PWs)   bands (ev):

    -7.3704  -7.3297  -7.1793  -6.8146  -6.6269  -6.4589  -6.0048  -5.8976
    -5.7091  -5.6348   3.3432  10.8980  12.6743  13.6170

          k =-0.0625-0.4375 0.0625 (  1633 PWs)   bands (ev):

    -7.3195  -7.2811  -7.2483  -6.9019  -6.7386  -6.3396  -5.9092  -5.8310
    -5.7946  -5.6824   2.5098  12.7738  14.0459  14.1300

          k =-0.1875 0.1875 0.1875 (  1621 PWs)   bands (ev):

    -7.2857  -7.2857  -7.1911  -6.9364  -6.9364  -6.0096  -6.0096  -5.9935
    -5.7063  -5.7063   1.9997  12.9348  15.9274  15.9274

          k =-0.3125 0.3125 0.0625 (  1626 PWs)   bands (ev):

    -7.3442  -7.3019  -7.1596  -6.9175  -6.8218  -6.1301  -6.0985  -5.8681
    -5.7702  -5.6352   2.5052  11.9286  13.4727  15.9954

          k =-0.4375 0.4375-0.0625 (  1630 PWs)   bands (ev):

    -7.3768  -7.3753  -7.0634  -6.8649  -6.7102  -6.2173  -6.1713  -5.9846
    -5.6602  -5.6019   3.4864  10.1585  11.9205  15.0438

          k = 0.4375-0.4375 0.8125 (  1624 PWs)   bands (ev):

    -7.4267  -7.3717  -7.0208  -6.7755  -6.6834  -6.2614  -6.2066  -6.0764
    -5.6084  -5.5768   4.7421   8.0107  11.8264  14.1148

          k = 0.3125-0.3125 0.6875 (  1629 PWs)   bands (ev):

    -7.4306  -7.3475  -7.0688  -6.7368  -6.6814  -6.3693  -6.1172  -6.0436
    -5.6496  -5.5628   4.7590   7.9722  12.2928  13.5849

          k = 0.1875-0.1875 0.5625 (  1629 PWs)   bands (ev):

    -7.3897  -7.3172  -7.1622  -6.8141  -6.6591  -6.4120  -6.0133  -5.9305
    -5.7139  -5.6112   3.4988  10.1308  13.1598  13.5611

          k =-0.1875 0.4375 0.1875 (  1628 PWs)   bands (ev):

    -7.3575  -7.2959  -7.1814  -6.8848  -6.7667  -6.2707  -5.9632  -5.9348
    -5.7456  -5.6383   2.8393  10.9784  14.2565  14.4375

          k =-0.3125 0.5625 0.0625 (  1629 PWs)   bands (ev):

    -7.3897  -7.3654  -7.0950  -6.8190  -6.6463  -6.3949  -6.0416  -6.0061
    -5.6599  -5.6023   3.6565  10.1419  11.9708  13.9874

          k = 0.5625-0.3125 0.9375 (  1632 PWs)   bands (ev):

    -7.4417  -7.4009  -6.9822  -6.7287  -6.5549  -6.4601  -6.1971  -6.1042
    -5.5805  -5.5523   4.8553   8.7345  10.8418  13.0611

          k = 0.4375-0.1875 0.8125 (  1628 PWs)   bands (ev):

    -7.4602  -7.3988  -6.9644  -6.6641  -6.5485  -6.4859  -6.2475  -6.1205
    -5.5823  -5.5231   5.5621   7.8113  10.9306  12.5528

          k = 0.3125-0.0625 0.6875 (  1633 PWs)   bands (ev):

    -7.4161  -7.3877  -7.0552  -6.7267  -6.5531  -6.5166  -6.1182  -6.0440
    -5.6111  -5.5772   4.4515   9.3051  11.4141  12.8482

          k =-0.1875 0.6875 0.1875 (  1630 PWs)   bands (ev):

    -7.4177  -7.3416  -7.1242  -6.7175  -6.5832  -6.5119  -6.1059  -5.9634
    -5.6639  -5.5780   4.3044   9.3135  11.9705  13.0162

          k = 0.6875-0.1875 1.0625 (  1639 PWs)   bands (ev):

    -7.4364  -7.4054  -6.9969  -6.6707  -6.6139  -6.4164  -6.2356  -6.0946
    -5.5780  -5.5469   5.3668   8.4158  11.0058  12.0146

          k = 0.5625-0.0625 0.9375 (  1627 PWs)   bands (ev):

    -7.4621  -7.4374  -6.8536  -6.7012  -6.5246  -6.4003  -6.3447  -6.2120
    -5.5371  -5.5126   6.4751   7.4571  10.5204  11.3190

          k = 0.4375 0.0625 0.8125 (  1627 PWs)   bands (ev):

    -7.4575  -7.4212  -6.9242  -6.6353  -6.5860  -6.4498  -6.2870  -6.1497
    -5.5571  -5.5234   5.6762   8.0992  10.5789  12.0070

          k =-0.1875-1.0625 0.1875 (  1634 PWs)   bands (ev):

    -7.4495  -7.3728  -7.0137  -6.7802  -6.4824  -6.3412  -6.3279  -6.0953
    -5.5973  -5.5269   6.2296   7.4450  10.6395  12.4523

          k =-0.3125-0.9375 0.0625 (  1634 PWs)   bands (ev):

    -7.4469  -7.4154  -6.9251  -6.7789  -6.4933  -6.3618  -6.3102  -6.1676
    -5.5589  -5.5286   6.3557   7.4453  10.7767  11.6028

          k =-0.1875-0.8125 0.1875 (  1635 PWs)   bands (ev):

    -7.4385  -7.3617  -7.0697  -6.6891  -6.6036  -6.4180  -6.2197  -6.0275
    -5.6211  -5.5462   5.2347   8.4262  11.0854  12.6424

          k =-0.3125 0.3125 0.3125 (  1634 PWs)   bands (ev):

    -7.3198  -7.3198  -7.1674  -6.8647  -6.8647  -6.0499  -6.0436  -6.0436
    -5.6834  -5.6834   2.9962   9.9530  15.1539  15.1539

          k =-0.4375 0.4375 0.1875 (  1633 PWs)   bands (ev):

    -7.3621  -7.3615  -7.0911  -6.8615  -6.7552  -6.1638  -6.1445  -5.9950
    -5.6705  -5.6212   3.6335   9.2270  13.0272  15.0069

          k = 0.4375-0.4375 1.0625 (  1626 PWs)   bands (ev):

    -7.4453  -7.3852  -6.9910  -6.7552  -6.6098  -6.3069  -6.2842  -6.0843
    -5.5880  -5.5552   4.6848   8.7553  10.7561  14.0155

          k = 0.3125-0.3125 0.9375 (  1634 PWs)   bands (ev):

    -7.4761  -7.3815  -6.9891  -6.5659  -6.5306  -6.5236  -6.3274  -6.1052
    -5.5895  -5.5047   5.8134   7.8048  10.1920  13.1115

          k =-0.3125 0.5625 0.3125 (  1623 PWs)   bands (ev):

    -7.3915  -7.3262  -7.1143  -6.8173  -6.7501  -6.2638  -6.0387  -6.0215
    -5.6890  -5.6057   4.0754   8.4447  13.6038  14.0299

          k = 0.5625-0.3125 1.1875 (  1631 PWs)   bands (ev):

    -7.4371  -7.3803  -7.0115  -6.7439  -6.6306  -6.3858  -6.1601  -6.0912
    -5.6090  -5.5554   4.9091   8.0759  11.6795  13.2871

          k = 0.4375-0.1875 1.0625 (  1628 PWs)   bands (ev):

    -7.4714  -7.4115  -6.9253  -6.6057  -6.5599  -6.4597  -6.3363  -6.1498
    -5.5632  -5.5072   5.9821   7.7760  10.3065  12.2188

          k =-0.3125-1.1875 0.3125 (  1633 PWs)   bands (ev):

    -7.4603  -7.3691  -7.0216  -6.6332  -6.6163  -6.4598  -6.2231  -6.0783
    -5.6114  -5.5258   5.4097   7.7538  11.0619  13.2723

          k =-0.4375 0.4375 0.4375 (  1637 PWs)   bands (ev):

    -7.3278  -7.3278  -7.1511  -6.8410  -6.8410  -6.0892  -6.0437  -6.0437
    -5.6795  -5.6795   4.2723   7.6553  14.7447  14.7447

          k = 0.4375-0.4375 1.3125 (  1630 PWs)   bands (ev):

    -7.3931  -7.3501  -7.0711  -6.8012  -6.7673  -6.1937  -6.1163  -6.0641
    -5.6432  -5.6137   4.7669   7.4268  13.0961  14.2959

     highest occupied level (ev):    16.8723

!    total energy              =    -318.10407464 Ry
     Harris-Foulkes estimate   =    -318.10407464 Ry
     estimated scf accuracy    <          1.2E-09 Ry

     The total energy is the sum of the following terms:

     one-electron contribution =    -102.82906824 Ry
     hartree contribution      =      76.48655259 Ry
     xc contribution           =     -86.74943926 Ry
     ewald contribution        =    -205.01211974 Ry

     convergence has been achieved in   7 iterations

     Writing output data file sn.alpha.10.3.save

     init_run     :      0.75s CPU      0.78s WALL (       1 calls)
     electrons    :     10.36s CPU     10.69s WALL (       1 calls)

     Called by init_run:
     wfcinit      :      0.45s CPU      0.46s WALL (       1 calls)
     potinit      :      0.03s CPU      0.03s WALL (       1 calls)

     Called by electrons:
     c_bands      :      8.46s CPU      8.71s WALL (       7 calls)
     sum_band     :      1.50s CPU      1.54s WALL (       7 calls)
     v_of_rho     :      0.17s CPU      0.17s WALL (       8 calls)
     newd         :      0.27s CPU      0.28s WALL (       8 calls)
     mix_rho      :      0.01s CPU      0.01s WALL (       7 calls)

     Called by c_bands:
     init_us_2    :      0.19s CPU      0.19s WALL (     900 calls)
     cegterg      :      8.08s CPU      8.32s WALL (     420 calls)

     Called by sum_band:
     sum_band:bec :      0.00s CPU      0.00s WALL (     420 calls)
     addusdens    :      0.33s CPU      0.33s WALL (       7 calls)

     Called by *egterg:
     h_psi        :      6.81s CPU      7.06s WALL (    1690 calls)
     s_psi        :      0.12s CPU      0.12s WALL (    1690 calls)
     g_psi        :      0.04s CPU      0.04s WALL (    1210 calls)
     cdiaghg      :      0.71s CPU      0.72s WALL (    1630 calls)

     Called by h_psi:
     h_psi:pot    :      6.78s CPU      7.00s WALL (    1690 calls)
     h_psi:calbec :      0.22s CPU      0.22s WALL (    1690 calls)
     vloc_psi     :      6.43s CPU      6.65s WALL (    1690 calls)
     add_vuspsi   :      0.13s CPU      0.13s WALL (    1690 calls)

     General routines
     calbec       :      0.27s CPU      0.26s WALL (    2110 calls)
     fft          :      0.07s CPU      0.07s WALL (     124 calls)
     ffts         :      0.01s CPU      0.01s WALL (      15 calls)
     fftw         :      6.46s CPU      6.54s WALL (   46430 calls)
     interpolate  :      0.02s CPU      0.02s WALL (      15 calls)
     davcio       :      0.00s CPU      0.00s WALL (      60 calls)

     Parallel routines
     fft_scatter  :      0.94s CPU      1.11s WALL (   46569 calls)

     PWSCF        :    11.27s CPU        12.48s WALL


   This run was terminated on:  15:30:43  11Nov2017            

=------------------------------------------------------------------------------=
   JOB DONE.
=------------------------------------------------------------------------------=
