
     Program PWSCF v.6.1 (svn rev. 13369) starts on 13Nov2017 at 10:34:48 

     This program is part of the open-source Quantum ESPRESSO suite
     for quantum simulation of materials; please cite
         "P. Giannozzi et al., J. Phys.:Condens. Matter 21 395502 (2009);
          URL http://www.quantum-espresso.org", 
     in publications or presentations arising from this work. More details at
     http://www.quantum-espresso.org/quote

     Parallel version (MPI), running on     4 processors
     R & G space division:  proc/nbgrp/npool/nimage =       4
     Waiting for input...
     Reading input from standard input

     Current dimensions of program PWSCF are:
     Max number of different atomic species (ntypx) = 10
     Max number of k-points (npk) =  40000
     Max angular momentum in pseudopotentials (lmaxx) =  3

     Subspace diagonalization in iterative solution of the eigenvalue problem:
     a serial algorithm will be used


     Parallelization info
     --------------------
     sticks:   dense  smooth     PW     G-vecs:    dense   smooth      PW
     Min        1215     483    198                17223     4362    1130
     Max        1218     484    199                17224     4363    1131
     Sum        4865    1933    793                68893    17449    4521



     bravais-lattice index     =            0
     lattice parameter (alat)  =      11.2000  a.u.
     unit-cell volume          =     365.0496 (a.u.)^3
     number of atoms/cell      =            2
     number of atomic types    =            1
     number of electrons       =        28.00
     number of Kohn-Sham states=           18
     kinetic-energy cutoff     =      50.0000  Ry
     charge density cutoff     =     500.0000  Ry
     convergence threshold     =      1.0E-08
     mixing beta               =       0.7000
     number of iterations used =            8  plain     mixing
     Exchange-correlation      =  SLA  PW   PBX  PBC ( 1  4  3  4 0 0)

     celldm(1)=  11.200000  celldm(2)=   0.000000  celldm(3)=   0.000000
     celldm(4)=   0.000000  celldm(5)=   0.000000  celldm(6)=   0.000000

     crystal axes: (cart. coord. in units of alat)
               a(1) = (   0.986837   0.000000   0.000000 )  
               a(2) = (   0.000000   0.986837   0.000000 )  
               a(3) = (   0.493419   0.493419   0.266813 )  

     reciprocal axes: (cart. coord. in units 2 pi/alat)
               b(1) = (  1.013339  0.000000 -1.873974 )  
               b(2) = (  0.000000  1.013339 -1.873974 )  
               b(3) = (  0.000000  0.000000  3.747943 )  


     PseudoPot. # 1 for Sn read from file:
     /home/s1333534/quantum_espresso/qe-6.1/pseudo/sn_pbe_v1.4.uspp.F.UPF
     MD5 check sum: 469debedee59599fedebd795477fea03
     Pseudo is Ultrasoft + core correction, Zval = 14.0
     Generated by new atomic code, or converted to UPF format
     Using radial grid of  891 points,  6 beta functions with: 
                l(1) =   0
                l(2) =   0
                l(3) =   1
                l(4) =   1
                l(5) =   2
                l(6) =   2
     Q(r) pseudized with  8 coefficients,  rinner =    1.350   1.350   1.350
                                                       1.350   1.350

     atomic species   valence    mass     pseudopotential
        Sn            14.00   118.71000     Sn( 1.00)

     No symmetry found



   Cartesian axes

     site n.     atom                  positions (alat units)
         1           Sn  tau(   1) = (   1.0725850   1.3160481   0.0533919  )
         2           Sn  tau(   2) = (   0.5198369   0.2763739   0.0177973  )

     number of k points=   800  Marzari-Vanderbilt smearing, width (Ry)=  0.0200

     Number of k-points >= 100: set verbosity='high' to print them.

     Dense  grid:    68893 G-vectors     FFT dimensions: (  80,  80,  60)

     Smooth grid:    17449 G-vectors     FFT dimensions: (  50,  50,  40)

     Estimated max dynamical RAM per process >     134.74MB

     Estimated total allocated dynamical RAM >     538.94MB

     Initial potential from superposition of free atoms

     starting charge   25.99991, renormalised to   28.00000
     Starting wfc are   18 randomized atomic wfcs

     total cpu time spent up to now is       20.7 secs

     per-process dynamical memory:   149.2 Mb

     Self-consistent Calculation

     iteration #  1     ecut=    50.00 Ry     beta=0.70
     Davidson diagonalization with overlap
     ethr =  1.00E-02,  avg # of iterations =  4.0

     total cpu time spent up to now is      101.0 secs

     total energy              =    -317.50177424 Ry
     Harris-Foulkes estimate   =    -319.46194549 Ry
     estimated scf accuracy    <       2.40030421 Ry

     iteration #  2     ecut=    50.00 Ry     beta=0.70
     Davidson diagonalization with overlap
     ethr =  8.57E-03,  avg # of iterations =  2.6

     total cpu time spent up to now is      171.0 secs

     total energy              =    -318.35059628 Ry
     Harris-Foulkes estimate   =    -318.64825874 Ry
     estimated scf accuracy    <       0.43795718 Ry

     iteration #  3     ecut=    50.00 Ry     beta=0.70
     Davidson diagonalization with overlap
     ethr =  1.56E-03,  avg # of iterations =  2.0

     total cpu time spent up to now is      238.8 secs

     total energy              =    -318.44136276 Ry
     Harris-Foulkes estimate   =    -318.44308709 Ry
     estimated scf accuracy    <       0.00291478 Ry

     iteration #  4     ecut=    50.00 Ry     beta=0.70
     Davidson diagonalization with overlap
     ethr =  1.04E-05,  avg # of iterations =  3.6

     total cpu time spent up to now is      318.0 secs

     total energy              =    -318.44197977 Ry
     Harris-Foulkes estimate   =    -318.44214448 Ry
     estimated scf accuracy    <       0.00032816 Ry

     iteration #  5     ecut=    50.00 Ry     beta=0.70
     Davidson diagonalization with overlap
     ethr =  1.17E-06,  avg # of iterations =  2.6

     total cpu time spent up to now is      383.6 secs

     total energy              =    -318.44203193 Ry
     Harris-Foulkes estimate   =    -318.44204231 Ry
     estimated scf accuracy    <       0.00001805 Ry

     iteration #  6     ecut=    50.00 Ry     beta=0.70
     Davidson diagonalization with overlap
     ethr =  6.45E-08,  avg # of iterations =  3.0

     total cpu time spent up to now is      457.6 secs

     total energy              =    -318.44203881 Ry
     Harris-Foulkes estimate   =    -318.44203925 Ry
     estimated scf accuracy    <       0.00000094 Ry

     iteration #  7     ecut=    50.00 Ry     beta=0.70
     Davidson diagonalization with overlap
     ethr =  3.34E-09,  avg # of iterations =  2.8

     total cpu time spent up to now is      521.6 secs

     total energy              =    -318.44203895 Ry
     Harris-Foulkes estimate   =    -318.44203907 Ry
     estimated scf accuracy    <       0.00000018 Ry

     iteration #  8     ecut=    50.00 Ry     beta=0.70
     Davidson diagonalization with overlap
     ethr =  6.25E-10,  avg # of iterations =  3.0

     total cpu time spent up to now is      594.5 secs

     End of self-consistent calculation

     Number of k-points >= 100: set verbosity='high' to print the bands.

     the Fermi energy is    10.8205 ev

!    total energy              =    -318.44203901 Ry
     Harris-Foulkes estimate   =    -318.44203902 Ry
     estimated scf accuracy    <          6.6E-09 Ry

     The total energy is the sum of the following terms:

     one-electron contribution =    -115.84250456 Ry
     hartree contribution      =      78.34963679 Ry
     xc contribution           =     -86.07877493 Ry
     ewald contribution        =    -194.87042093 Ry
     smearing contrib. (-TS)   =       0.00002462 Ry

     convergence has been achieved in   8 iterations

     Writing output data file sn.beta.11.20.save

     init_run     :     19.95s CPU     20.66s WALL (       1 calls)
     electrons    :    555.30s CPU    573.85s WALL (       1 calls)

     Called by init_run:
     wfcinit      :     18.86s CPU     19.54s WALL (       1 calls)
     potinit      :      0.29s CPU      0.30s WALL (       1 calls)

     Called by electrons:
     c_bands      :    462.19s CPU    476.85s WALL (       8 calls)
     sum_band     :     91.36s CPU     95.05s WALL (       8 calls)
     v_of_rho     :      0.91s CPU      0.98s WALL (       9 calls)
     newd         :      0.87s CPU      0.95s WALL (       9 calls)
     mix_rho      :      0.08s CPU      0.09s WALL (       8 calls)

     Called by c_bands:
     init_us_2    :      4.91s CPU      5.05s WALL (   13600 calls)
     cegterg      :    453.41s CPU    467.82s WALL (    6400 calls)

     Called by sum_band:
     sum_band:bec :      0.08s CPU      0.10s WALL (    6400 calls)
     addusdens    :      0.98s CPU      1.12s WALL (       8 calls)

     Called by *egterg:
     h_psi        :    425.22s CPU    439.19s WALL (   25990 calls)
     s_psi        :      3.70s CPU      3.78s WALL (   25990 calls)
     g_psi        :      0.95s CPU      0.98s WALL (   18790 calls)
     cdiaghg      :     16.72s CPU     17.04s WALL (   25190 calls)

     Called by h_psi:
     h_psi:pot    :    422.69s CPU    436.59s WALL (   25990 calls)
     h_psi:calbec :      7.64s CPU      7.86s WALL (   25990 calls)
     vloc_psi     :    409.30s CPU    422.79s WALL (   25990 calls)
     add_vuspsi   :      5.73s CPU      5.84s WALL (   25990 calls)

     General routines
     calbec       :     10.32s CPU     10.61s WALL (   32390 calls)
     fft          :      0.60s CPU      0.66s WALL (     140 calls)
     ffts         :      0.01s CPU      0.02s WALL (      17 calls)
     fftw         :    337.38s CPU    349.88s WALL (  802600 calls)
     interpolate  :      0.11s CPU      0.11s WALL (      17 calls)
     davcio       :      0.01s CPU      0.04s WALL (     800 calls)

     Parallel routines
     fft_scatter  :     70.04s CPU     73.92s WALL (  802757 calls)

     PWSCF        :  9m36.35s CPU    10m 8.99s WALL


   This run was terminated on:  10:44:57  13Nov2017            

=------------------------------------------------------------------------------=
   JOB DONE.
=------------------------------------------------------------------------------=
