
     Program PWSCF v.6.1 (svn rev. 13369) starts on 11Nov2017 at 15:33:39 

     This program is part of the open-source Quantum ESPRESSO suite
     for quantum simulation of materials; please cite
         "P. Giannozzi et al., J. Phys.:Condens. Matter 21 395502 (2009);
          URL http://www.quantum-espresso.org", 
     in publications or presentations arising from this work. More details at
     http://www.quantum-espresso.org/quote

     Parallel version (MPI), running on     4 processors
     R & G space division:  proc/nbgrp/npool/nimage =       4
     Waiting for input...
     Reading input from standard input
     Message from routine read_cards :
     DEPRECATED: no units specified in ATOMIC_POSITIONS card
     Message from routine read_cards :
     ATOMIC_POSITIONS: units set to alat

     Current dimensions of program PWSCF are:
     Max number of different atomic species (ntypx) = 10
     Max number of k-points (npk) =  40000
     Max angular momentum in pseudopotentials (lmaxx) =  3

     Subspace diagonalization in iterative solution of the eigenvalue problem:
     a serial algorithm will be used


     Parallelization info
     --------------------
     sticks:   dense  smooth     PW     G-vecs:    dense   smooth      PW
     Min         604     306     91                19806     6997    1161
     Max         605     307     92                19809     6998    1162
     Sum        2419    1225    367                79231    27989    4645



     bravais-lattice index     =            2
     lattice parameter (alat)  =      13.3000  a.u.
     unit-cell volume          =     588.1593 (a.u.)^3
     number of atoms/cell      =            2
     number of atomic types    =            1
     number of electrons       =        28.00
     number of Kohn-Sham states=           14
     kinetic-energy cutoff     =      50.0000  Ry
     charge density cutoff     =     400.0000  Ry
     convergence threshold     =      1.0E-08
     mixing beta               =       0.7000
     number of iterations used =            8  plain     mixing
     Exchange-correlation      =  SLA  PW   PBX  PBC ( 1  4  3  4 0 0)

     celldm(1)=  13.300000  celldm(2)=   0.000000  celldm(3)=   0.000000
     celldm(4)=   0.000000  celldm(5)=   0.000000  celldm(6)=   0.000000

     crystal axes: (cart. coord. in units of alat)
               a(1) = (  -0.500000   0.000000   0.500000 )  
               a(2) = (   0.000000   0.500000   0.500000 )  
               a(3) = (  -0.500000   0.500000   0.000000 )  

     reciprocal axes: (cart. coord. in units 2 pi/alat)
               b(1) = ( -1.000000 -1.000000  1.000000 )  
               b(2) = (  1.000000  1.000000  1.000000 )  
               b(3) = ( -1.000000  1.000000 -1.000000 )  


     PseudoPot. # 1 for Sn read from file:
     /home/s1333534/quantum_espresso/qe-6.1/pseudo/sn_pbe_v1.4.uspp.F.UPF
     MD5 check sum: 469debedee59599fedebd795477fea03
     Pseudo is Ultrasoft + core correction, Zval = 14.0
     Generated by new atomic code, or converted to UPF format
     Using radial grid of  891 points,  6 beta functions with: 
                l(1) =   0
                l(2) =   0
                l(3) =   1
                l(4) =   1
                l(5) =   2
                l(6) =   2
     Q(r) pseudized with  8 coefficients,  rinner =    1.350   1.350   1.350
                                                       1.350   1.350

     atomic species   valence    mass     pseudopotential
        Sn            14.00   118.71000     Sn( 1.00)

     48 Sym. Ops., with inversion, found (24 have fractional translation)



   Cartesian axes

     site n.     atom                  positions (alat units)
         1           Sn  tau(   1) = (   0.0000000   0.0000000   0.0000000  )
         2           Sn  tau(   2) = (   0.2500000   0.2500000   0.2500000  )

     number of k points=    60
                       cart. coord. in units 2pi/alat
        k(    1) = (  -0.0625000   0.0625000   0.0625000), wk =   0.0078125
        k(    2) = (  -0.1875000   0.1875000  -0.0625000), wk =   0.0234375
        k(    3) = (  -0.3125000   0.3125000  -0.1875000), wk =   0.0234375
        k(    4) = (  -0.4375000   0.4375000  -0.3125000), wk =   0.0234375
        k(    5) = (   0.4375000  -0.4375000   0.5625000), wk =   0.0234375
        k(    6) = (   0.3125000  -0.3125000   0.4375000), wk =   0.0234375
        k(    7) = (   0.1875000  -0.1875000   0.3125000), wk =   0.0234375
        k(    8) = (   0.0625000  -0.0625000   0.1875000), wk =   0.0234375
        k(    9) = (  -0.0625000   0.3125000   0.0625000), wk =   0.0234375
        k(   10) = (  -0.1875000   0.4375000  -0.0625000), wk =   0.0468750
        k(   11) = (  -0.3125000   0.5625000  -0.1875000), wk =   0.0468750
        k(   12) = (   0.5625000  -0.3125000   0.6875000), wk =   0.0468750
        k(   13) = (   0.4375000  -0.1875000   0.5625000), wk =   0.0468750
        k(   14) = (   0.3125000  -0.0625000   0.4375000), wk =   0.0468750
        k(   15) = (   0.1875000   0.0625000   0.3125000), wk =   0.0468750
        k(   16) = (  -0.0625000   0.5625000   0.0625000), wk =   0.0234375
        k(   17) = (  -0.1875000   0.6875000  -0.0625000), wk =   0.0468750
        k(   18) = (   0.6875000  -0.1875000   0.8125000), wk =   0.0468750
        k(   19) = (   0.5625000  -0.0625000   0.6875000), wk =   0.0468750
        k(   20) = (   0.4375000   0.0625000   0.5625000), wk =   0.0468750
        k(   21) = (   0.3125000   0.1875000   0.4375000), wk =   0.0468750
        k(   22) = (  -0.0625000   0.8125000   0.0625000), wk =   0.0234375
        k(   23) = (   0.8125000  -0.0625000   0.9375000), wk =   0.0468750
        k(   24) = (   0.6875000   0.0625000   0.8125000), wk =   0.0468750
        k(   25) = (   0.5625000   0.1875000   0.6875000), wk =   0.0468750
        k(   26) = (   0.4375000   0.3125000   0.5625000), wk =   0.0468750
        k(   27) = (  -0.0625000  -0.9375000   0.0625000), wk =   0.0234375
        k(   28) = (  -0.1875000  -0.8125000  -0.0625000), wk =   0.0468750
        k(   29) = (  -0.3125000  -0.6875000  -0.1875000), wk =   0.0468750
        k(   30) = (  -0.0625000  -0.6875000   0.0625000), wk =   0.0234375
        k(   31) = (  -0.1875000  -0.5625000  -0.0625000), wk =   0.0468750
        k(   32) = (  -0.0625000  -0.4375000   0.0625000), wk =   0.0234375
        k(   33) = (  -0.1875000   0.1875000   0.1875000), wk =   0.0078125
        k(   34) = (  -0.3125000   0.3125000   0.0625000), wk =   0.0234375
        k(   35) = (  -0.4375000   0.4375000  -0.0625000), wk =   0.0234375
        k(   36) = (   0.4375000  -0.4375000   0.8125000), wk =   0.0234375
        k(   37) = (   0.3125000  -0.3125000   0.6875000), wk =   0.0234375
        k(   38) = (   0.1875000  -0.1875000   0.5625000), wk =   0.0234375
        k(   39) = (  -0.1875000   0.4375000   0.1875000), wk =   0.0234375
        k(   40) = (  -0.3125000   0.5625000   0.0625000), wk =   0.0468750
        k(   41) = (   0.5625000  -0.3125000   0.9375000), wk =   0.0468750
        k(   42) = (   0.4375000  -0.1875000   0.8125000), wk =   0.0468750
        k(   43) = (   0.3125000  -0.0625000   0.6875000), wk =   0.0468750
        k(   44) = (  -0.1875000   0.6875000   0.1875000), wk =   0.0234375
        k(   45) = (   0.6875000  -0.1875000   1.0625000), wk =   0.0468750
        k(   46) = (   0.5625000  -0.0625000   0.9375000), wk =   0.0468750
        k(   47) = (   0.4375000   0.0625000   0.8125000), wk =   0.0468750
        k(   48) = (  -0.1875000  -1.0625000   0.1875000), wk =   0.0234375
        k(   49) = (  -0.3125000  -0.9375000   0.0625000), wk =   0.0468750
        k(   50) = (  -0.1875000  -0.8125000   0.1875000), wk =   0.0234375
        k(   51) = (  -0.3125000   0.3125000   0.3125000), wk =   0.0078125
        k(   52) = (  -0.4375000   0.4375000   0.1875000), wk =   0.0234375
        k(   53) = (   0.4375000  -0.4375000   1.0625000), wk =   0.0234375
        k(   54) = (   0.3125000  -0.3125000   0.9375000), wk =   0.0234375
        k(   55) = (  -0.3125000   0.5625000   0.3125000), wk =   0.0234375
        k(   56) = (   0.5625000  -0.3125000   1.1875000), wk =   0.0468750
        k(   57) = (   0.4375000  -0.1875000   1.0625000), wk =   0.0468750
        k(   58) = (  -0.3125000  -1.1875000   0.3125000), wk =   0.0234375
        k(   59) = (  -0.4375000   0.4375000   0.4375000), wk =   0.0078125
        k(   60) = (   0.4375000  -0.4375000   1.3125000), wk =   0.0234375

     Dense  grid:    79231 G-vectors     FFT dimensions: (  60,  60,  60)

     Smooth grid:    27989 G-vectors     FFT dimensions: (  45,  45,  45)

     Estimated max dynamical RAM per process >      25.07MB

     Estimated total allocated dynamical RAM >     100.28MB

     Initial potential from superposition of free atoms

     starting charge   25.99991, renormalised to   28.00000
     Starting wfc are   18 randomized atomic wfcs

     total cpu time spent up to now is        1.8 secs

     per-process dynamical memory:    28.8 Mb

     Self-consistent Calculation

     iteration #  1     ecut=    50.00 Ry     beta=0.70
     Davidson diagonalization with overlap
     ethr =  1.00E-02,  avg # of iterations =  2.1

     total cpu time spent up to now is        5.2 secs

     total energy              =    -317.44847652 Ry
     Harris-Foulkes estimate   =    -319.56462361 Ry
     estimated scf accuracy    <       2.57631559 Ry

     iteration #  2     ecut=    50.00 Ry     beta=0.70
     Davidson diagonalization with overlap
     ethr =  9.20E-03,  avg # of iterations =  3.0

     total cpu time spent up to now is        9.0 secs

     total energy              =    -318.37663478 Ry
     Harris-Foulkes estimate   =    -318.69979613 Ry
     estimated scf accuracy    <       0.47823219 Ry

     iteration #  3     ecut=    50.00 Ry     beta=0.70
     Davidson diagonalization with overlap
     ethr =  1.71E-03,  avg # of iterations =  2.0

     total cpu time spent up to now is       12.4 secs

     total energy              =    -318.47374342 Ry
     Harris-Foulkes estimate   =    -318.47527707 Ry
     estimated scf accuracy    <       0.00283784 Ry

     iteration #  4     ecut=    50.00 Ry     beta=0.70
     Davidson diagonalization with overlap
     ethr =  1.01E-05,  avg # of iterations =  2.9

     total cpu time spent up to now is       16.0 secs

     total energy              =    -318.47459110 Ry
     Harris-Foulkes estimate   =    -318.47469679 Ry
     estimated scf accuracy    <       0.00015582 Ry

     iteration #  5     ecut=    50.00 Ry     beta=0.70
     Davidson diagonalization with overlap
     ethr =  5.57E-07,  avg # of iterations =  3.0

     total cpu time spent up to now is       19.8 secs

     total energy              =    -318.47464052 Ry
     Harris-Foulkes estimate   =    -318.47464125 Ry
     estimated scf accuracy    <       0.00000150 Ry

     iteration #  6     ecut=    50.00 Ry     beta=0.70
     Davidson diagonalization with overlap
     ethr =  5.36E-09,  avg # of iterations =  4.3

     total cpu time spent up to now is       23.6 secs

     total energy              =    -318.47464137 Ry
     Harris-Foulkes estimate   =    -318.47464139 Ry
     estimated scf accuracy    <       0.00000006 Ry

     iteration #  7     ecut=    50.00 Ry     beta=0.70
     Davidson diagonalization with overlap
     ethr =  1.99E-10,  avg # of iterations =  3.2

     total cpu time spent up to now is       27.5 secs

     End of self-consistent calculation

          k =-0.0625 0.0625 0.0625 (  3515 PWs)   bands (ev):

   -16.2566 -16.2566 -16.2548 -16.2201 -16.2201 -16.0756 -16.0756 -16.0638
   -16.0594 -16.0594  -4.0473   2.7431   5.1628   5.1628

          k =-0.1875 0.1875-0.0625 (  3531 PWs)   bands (ev):

   -16.2633 -16.2609 -16.2520 -16.2139 -16.2103 -16.0891 -16.0836 -16.0649
   -16.0552 -16.0493  -3.8938   1.9917   4.6325   5.0488

          k =-0.3125 0.3125-0.1875 (  3523 PWs)   bands (ev):

   -16.2703 -16.2687 -16.2440 -16.2033 -16.1980 -16.1006 -16.0942 -16.0737
   -16.0447 -16.0415  -3.5324   0.8314   4.1958   4.7104

          k =-0.4375 0.4375-0.3125 (  3515 PWs)   bands (ev):

   -16.2737 -16.2735 -16.2370 -16.1951 -16.1912 -16.1062 -16.1014 -16.0824
   -16.0380 -16.0376  -3.0679  -0.1755   3.9631   4.4194

          k = 0.4375-0.4375 0.5625 (  3514 PWs)   bands (ev):

   -16.2756 -16.2732 -16.2350 -16.1914 -16.1910 -16.1061 -16.1050 -16.0842
   -16.0381 -16.0355  -2.8701  -0.5164   3.9469   4.2807

          k = 0.3125-0.3125 0.4375 (  3512 PWs)   bands (ev):

   -16.2740 -16.2707 -16.2394 -16.1973 -16.1924 -16.1065 -16.0991 -16.0785
   -16.0412 -16.0373  -3.2192   0.1155   4.1377   4.3267

          k = 0.1875-0.1875 0.3125 (  3528 PWs)   bands (ev):

   -16.2685 -16.2656 -16.2477 -16.2071 -16.2008 -16.0995 -16.0893 -16.0697
   -16.0483 -16.0439  -3.6720   1.2225   4.5002   4.5529

          k = 0.0625-0.0625 0.1875 (  3534 PWs)   bands (ev):

   -16.2599 -16.2588 -16.2547 -16.2176 -16.2134 -16.0871 -16.0773 -16.0628
   -16.0580 -16.0537  -3.9698   2.3344   4.8993   4.9089

          k =-0.0625 0.3125 0.0625 (  3524 PWs)   bands (ev):

   -16.2638 -16.2623 -16.2547 -16.2123 -16.2012 -16.1022 -16.0817 -16.0595
   -16.0541 -16.0494  -3.8157   1.7413   4.5152   4.5379

          k =-0.1875 0.4375-0.0625 (  3523 PWs)   bands (ev):

   -16.2717 -16.2690 -16.2461 -16.2028 -16.1873 -16.1174 -16.0915 -16.0675
   -16.0451 -16.0406  -3.5183   0.8933   3.8992   4.3249

          k =-0.3125 0.5625-0.1875 (  3515 PWs)   bands (ev):

   -16.2803 -16.2741 -16.2319 -16.1922 -16.1785 -16.1247 -16.1029 -16.0829
   -16.0374 -16.0309  -3.0633  -0.0644   3.4455   4.0878

          k = 0.5625-0.3125 0.6875 (  3514 PWs)   bands (ev):

   -16.2843 -16.2766 -16.2223 -16.1842 -16.1800 -16.1200 -16.1128 -16.0942
   -16.0341 -16.0263  -2.7067  -0.6487   3.2133   4.0361

          k = 0.4375-0.1875 0.5625 (  3516 PWs)   bands (ev):

   -16.2821 -16.2766 -16.2245 -16.1908 -16.1796 -16.1197 -16.1053 -16.0935
   -16.0340 -16.0293  -2.9150  -0.3218   3.2360   4.1990

          k = 0.3125-0.0625 0.4375 (  3517 PWs)   bands (ev):

   -16.2747 -16.2731 -16.2370 -16.2004 -16.1871 -16.1142 -16.0958 -16.0786
   -16.0396 -16.0371  -3.3838   0.5672   3.5675   4.5048

          k = 0.1875 0.0625 0.3125 (  3520 PWs)   bands (ev):

   -16.2673 -16.2645 -16.2494 -16.2095 -16.2006 -16.1010 -16.0865 -16.0659
   -16.0508 -16.0447  -3.7426   1.4747   4.2620   4.7355

          k =-0.0625 0.5625 0.0625 (  3519 PWs)   bands (ev):

   -16.2731 -16.2716 -16.2478 -16.1939 -16.1690 -16.1393 -16.0990 -16.0631
   -16.0411 -16.0394  -3.2846   0.4285   3.8010   3.8720

          k =-0.1875 0.6875-0.0625 (  3505 PWs)   bands (ev):

   -16.2804 -16.2773 -16.2325 -16.1816 -16.1553 -16.1531 -16.1115 -16.0787
   -16.0334 -16.0302  -2.8635  -0.3039   3.3457   3.6591

          k = 0.6875-0.1875 0.8125 (  3504 PWs)   bands (ev):

   -16.2891 -16.2801 -16.2138 -16.1697 -16.1574 -16.1493 -16.1249 -16.0981
   -16.0294 -16.0209  -2.4063  -0.9399   2.8792   3.6333

          k = 0.5625-0.0625 0.6875 (  3512 PWs)   bands (ev):

   -16.2907 -16.2810 -16.2087 -16.1721 -16.1625 -16.1379 -16.1280 -16.1042
   -16.0290 -16.0196  -2.4631  -0.8675   2.7139   3.8356

          k = 0.4375 0.0625 0.5625 (  3514 PWs)   bands (ev):

   -16.2839 -16.2785 -16.2202 -16.1902 -16.1741 -16.1257 -16.1056 -16.0975
   -16.0322 -16.0274  -2.9325  -0.2338   3.0132   4.1815

          k = 0.3125 0.1875 0.4375 (  3513 PWs)   bands (ev):

   -16.2747 -16.2712 -16.2385 -16.1992 -16.1897 -16.1108 -16.0968 -16.0779
   -16.0412 -16.0368  -3.3275   0.3891   3.8184   4.4282

          k =-0.0625 0.8125 0.0625 (  3489 PWs)   bands (ev):

   -16.2803 -16.2791 -16.2279 -16.1783 -16.1676 -16.1320 -16.1240 -16.0829
   -16.0301 -16.0289  -2.4783  -0.8468   3.3673   3.4638

          k = 0.8125-0.0625 0.9375 (  3495 PWs)   bands (ev):

   -16.2854 -16.2823 -16.2082 -16.1895 -16.1536 -16.1387 -16.1205 -16.1025
   -16.0267 -16.0236  -1.9740  -1.4362   3.0998   3.3480

          k = 0.6875 0.0625 0.8125 (  3509 PWs)   bands (ev):

   -16.2911 -16.2821 -16.2058 -16.1655 -16.1571 -16.1426 -16.1372 -16.1053
   -16.0274 -16.0186  -2.0985  -1.2877   2.7517   3.5414

          k = 0.5625 0.1875 0.6875 (  3510 PWs)   bands (ev):

   -16.2885 -16.2792 -16.2141 -16.1770 -16.1709 -16.1297 -16.1213 -16.1003
   -16.0308 -16.0219  -2.5528  -0.7938   2.8933   3.9032

          k = 0.4375 0.3125 0.5625 (  3519 PWs)   bands (ev):

   -16.2789 -16.2743 -16.2307 -16.1912 -16.1866 -16.1117 -16.1052 -16.0882
   -16.0367 -16.0323  -2.8892  -0.4383   3.6036   4.2297

          k =-0.0625-0.9375 0.0625 (  3498 PWs)   bands (ev):

   -16.2824 -16.2810 -16.2136 -16.1965 -16.1533 -16.1386 -16.1143 -16.0974
   -16.0278 -16.0265  -1.9846  -1.4365   3.2782   3.3797

          k =-0.1875-0.8125-0.0625 (  3497 PWs)   bands (ev):

   -16.2836 -16.2804 -16.2214 -16.1725 -16.1680 -16.1368 -16.1245 -16.0895
   -16.0290 -16.0260  -2.4433  -0.8854   3.1820   3.4534

          k =-0.3125-0.6875-0.1875 (  3513 PWs)   bands (ev):

   -16.2854 -16.2772 -16.2234 -16.1820 -16.1661 -16.1393 -16.1128 -16.0897
   -16.0333 -16.0254  -2.7497  -0.5125   3.1198   3.8166

          k =-0.0625-0.6875 0.0625 (  3503 PWs)   bands (ev):

   -16.2771 -16.2758 -16.2394 -16.1813 -16.1589 -16.1507 -16.1109 -16.0714
   -16.0350 -16.0335  -2.9137  -0.2215   3.5432   3.6296

          k =-0.1875-0.5625-0.0625 (  3514 PWs)   bands (ev):

   -16.2762 -16.2733 -16.2407 -16.1934 -16.1715 -16.1354 -16.1002 -16.0712
   -16.0390 -16.0356  -3.2238   0.2935   3.5875   3.9551

          k =-0.0625-0.4375 0.0625 (  3535 PWs)   bands (ev):

   -16.2685 -16.2668 -16.2530 -16.2044 -16.1863 -16.1202 -16.0891 -16.0590
   -16.0480 -16.0454  -3.5864   1.0900   4.1313   4.1812

          k =-0.1875 0.1875 0.1875 (  3527 PWs)   bands (ev):

   -16.2640 -16.2640 -16.2498 -16.2096 -16.2096 -16.0886 -16.0886 -16.0686
   -16.0494 -16.0494  -3.8195   1.6866   4.8496   4.8496

          k =-0.3125 0.3125 0.0625 (  3521 PWs)   bands (ev):

   -16.2708 -16.2688 -16.2432 -16.2054 -16.1967 -16.1027 -16.0929 -16.0725
   -16.0457 -16.0407  -3.5978   1.0536   3.9071   4.8136

          k =-0.4375 0.4375-0.0625 (  3509 PWs)   bands (ev):

   -16.2789 -16.2763 -16.2278 -16.1969 -16.1827 -16.1157 -16.0996 -16.0902
   -16.0346 -16.0332  -3.1866   0.1785   3.2563   4.4794

          k = 0.4375-0.4375 0.8125 (  3510 PWs)   bands (ev):

   -16.2854 -16.2776 -16.2187 -16.1854 -16.1773 -16.1196 -16.1137 -16.0988
   -16.0325 -16.0253  -2.7378  -0.5734   3.0377   4.1418

          k = 0.3125-0.3125 0.6875 (  3524 PWs)   bands (ev):

   -16.2855 -16.2760 -16.2237 -16.1826 -16.1749 -16.1290 -16.1127 -16.0911
   -16.0347 -16.0255  -2.7250  -0.5928   3.1714   3.9534

          k = 0.1875-0.1875 0.5625 (  3516 PWs)   bands (ev):

   -16.2788 -16.2721 -16.2380 -16.1930 -16.1749 -16.1311 -16.1012 -16.0749
   -16.0400 -16.0327  -3.1690   0.1588   3.5838   3.9665

          k =-0.1875 0.4375 0.1875 (  3521 PWs)   bands (ev):

   -16.2736 -16.2686 -16.2439 -16.2014 -16.1890 -16.1145 -16.0934 -16.0708
   -16.0449 -16.0384  -3.4538   0.6994   4.0147   4.2435

          k =-0.3125 0.5625 0.0625 (  3509 PWs)   bands (ev):

   -16.2795 -16.2766 -16.2303 -16.1924 -16.1741 -16.1298 -16.1023 -16.0839
   -16.0346 -16.0319  -3.1047   0.0582   3.2881   4.0901

          k = 0.5625-0.3125 0.9375 (  3507 PWs)   bands (ev):

   -16.2877 -16.2811 -16.2124 -16.1801 -16.1625 -16.1399 -16.1165 -16.1016
   -16.0290 -16.0228  -2.6297  -0.6503   2.8609   3.7857

          k = 0.4375-0.1875 0.8125 (  3519 PWs)   bands (ev):

   -16.2901 -16.2818 -16.2083 -16.1719 -16.1598 -16.1441 -16.1253 -16.1045
   -16.0282 -16.0203  -2.3902  -0.9636   2.8211   3.6171

          k = 0.3125-0.0625 0.6875 (  3507 PWs)   bands (ev):

   -16.2840 -16.2799 -16.2220 -16.1816 -16.1595 -16.1465 -16.1128 -16.0904
   -16.0305 -16.0267  -2.7665  -0.4545   3.0883   3.7105

          k =-0.1875 0.6875 0.1875 (  3510 PWs)   bands (ev):

   -16.2834 -16.2760 -16.2297 -16.1818 -16.1599 -16.1477 -16.1119 -16.0823
   -16.0346 -16.0272  -2.8236  -0.3814   3.2413   3.7452

          k = 0.6875-0.1875 1.0625 (  3502 PWs)   bands (ev):

   -16.2870 -16.2829 -16.2113 -16.1687 -16.1638 -16.1436 -16.1255 -16.0998
   -16.0268 -16.0229  -2.3778  -0.9592   2.9747   3.4157

          k = 0.5625-0.0625 0.9375 (  3494 PWs)   bands (ev):

   -16.2901 -16.2867 -16.1914 -16.1703 -16.1560 -16.1410 -16.1358 -16.1177
   -16.0226 -16.0193  -1.9474  -1.4365   2.8446   3.1638

          k = 0.4375 0.0625 0.8125 (  3513 PWs)   bands (ev):

   -16.2899 -16.2844 -16.2027 -16.1684 -16.1560 -16.1489 -16.1286 -16.1089
   -16.0254 -16.0202  -2.2905  -1.0602   2.8091   3.4208

          k =-0.1875-1.0625 0.1875 (  3485 PWs)   bands (ev):

   -16.2886 -16.2810 -16.2086 -16.1788 -16.1546 -16.1380 -16.1300 -16.1020
   -16.0280 -16.0204  -2.0204  -1.3810   2.8842   3.5141

          k =-0.3125-0.9375 0.0625 (  3500 PWs)   bands (ev):

   -16.2884 -16.2850 -16.1994 -16.1791 -16.1546 -16.1395 -16.1294 -16.1108
   -16.0244 -16.0209  -1.9586  -1.4362   2.9366   3.2436

          k =-0.1875-0.8125 0.1875 (  3493 PWs)   bands (ev):

   -16.2868 -16.2792 -16.2190 -16.1684 -16.1657 -16.1426 -16.1246 -16.0920
   -16.0302 -16.0229  -2.4283  -0.9075   3.0048   3.5922

          k =-0.3125 0.3125 0.3125 (  3518 PWs)   bands (ev):

   -16.2700 -16.2700 -16.2433 -16.1989 -16.1989 -16.0986 -16.0986 -16.0753
   -16.0421 -16.0421  -3.4043   0.4904   4.5343   4.5343

          k =-0.4375 0.4375 0.1875 (  3507 PWs)   bands (ev):

   -16.2767 -16.2751 -16.2315 -16.1964 -16.1864 -16.1114 -16.1001 -16.0868
   -16.0358 -16.0352  -3.1448   0.0351   3.5209   4.4602

          k = 0.4375-0.4375 1.0625 (  3513 PWs)   bands (ev):

   -16.2880 -16.2793 -16.2136 -16.1830 -16.1706 -16.1268 -16.1176 -16.1021
   -16.0308 -16.0227  -2.7149  -0.5491   2.8133   4.1076

          k = 0.3125-0.3125 0.9375 (  3505 PWs)   bands (ev):

   -16.2919 -16.2806 -16.2083 -16.1604 -16.1582 -16.1484 -16.1345 -16.1033
   -16.0288 -16.0181  -2.2799  -1.0861   2.6740   3.7678

          k =-0.3125 0.5625 0.3125 (  3520 PWs)   bands (ev):

   -16.2798 -16.2731 -16.2324 -16.1916 -16.1841 -16.1173 -16.1039 -16.0840
   -16.0385 -16.0315  -2.9869  -0.2519   3.6169   4.1243

          k = 0.5625-0.3125 1.1875 (  3517 PWs)   bands (ev):

   -16.2868 -16.2791 -16.2167 -16.1818 -16.1704 -16.1316 -16.1148 -16.0984
   -16.0313 -16.0239  -2.6537  -0.6611   2.9963   3.8744

          k = 0.4375-0.1875 1.0625 (  3512 PWs)   bands (ev):

   -16.2914 -16.2837 -16.2014 -16.1637 -16.1544 -16.1501 -16.1345 -16.1095
   -16.0259 -16.0185  -2.1930  -1.1750   2.7273   3.4792

          k =-0.3125-1.1875 0.3125 (  3519 PWs)   bands (ev):

   -16.2898 -16.2789 -16.2148 -16.1712 -16.1655 -16.1401 -16.1240 -16.0983
   -16.0309 -16.0208  -2.4658  -0.8883   2.8462   3.8312

          k =-0.4375 0.4375 0.4375 (  3510 PWs)   bands (ev):

   -16.2723 -16.2723 -16.2392 -16.1934 -16.1934 -16.1032 -16.1032 -16.0806
   -16.0387 -16.0387  -2.9698  -0.3759   4.3572   4.3572

          k = 0.4375-0.4375 1.3125 (  3509 PWs)   bands (ev):

   -16.2808 -16.2752 -16.2269 -16.1882 -16.1856 -16.1111 -16.1096 -16.0919
   -16.0352 -16.0300  -2.7891  -0.5775   3.4385   4.2037

     highest occupied level (ev):     5.1628

!    total energy              =    -318.47464140 Ry
     Harris-Foulkes estimate   =    -318.47464140 Ry
     estimated scf accuracy    <          3.1E-09 Ry

     The total energy is the sum of the following terms:

     one-electron contribution =    -177.28639779 Ry
     hartree contribution      =     103.40159261 Ry
     xc contribution           =     -85.82105176 Ry
     ewald contribution        =    -158.76878446 Ry

     convergence has been achieved in   7 iterations

     Writing output data file sn.alpha.13.3.save

     init_run     :      1.65s CPU      1.71s WALL (       1 calls)
     electrons    :     25.09s CPU     25.78s WALL (       1 calls)

     Called by init_run:
     wfcinit      :      1.12s CPU      1.14s WALL (       1 calls)
     potinit      :      0.06s CPU      0.06s WALL (       1 calls)

     Called by electrons:
     c_bands      :     20.30s CPU     20.67s WALL (       7 calls)
     sum_band     :      3.82s CPU      4.00s WALL (       7 calls)
     v_of_rho     :      0.37s CPU      0.39s WALL (       8 calls)
     newd         :      0.64s CPU      0.75s WALL (       8 calls)
     mix_rho      :      0.03s CPU      0.04s WALL (       7 calls)

     Called by c_bands:
     init_us_2    :      0.45s CPU      0.46s WALL (     900 calls)
     cegterg      :     19.40s CPU     19.77s WALL (     420 calls)

     Called by sum_band:
     sum_band:bec :      0.00s CPU      0.00s WALL (     420 calls)
     addusdens    :      0.65s CPU      0.77s WALL (       7 calls)

     Called by *egterg:
     h_psi        :     17.53s CPU     17.90s WALL (    1710 calls)
     s_psi        :      0.29s CPU      0.29s WALL (    1710 calls)
     g_psi        :      0.09s CPU      0.09s WALL (    1230 calls)
     cdiaghg      :      0.72s CPU      0.72s WALL (    1650 calls)

     Called by h_psi:
     h_psi:pot    :     17.36s CPU     17.72s WALL (    1710 calls)
     h_psi:calbec :      0.57s CPU      0.58s WALL (    1710 calls)
     vloc_psi     :     16.39s CPU     16.73s WALL (    1710 calls)
     add_vuspsi   :      0.40s CPU      0.40s WALL (    1710 calls)

     General routines
     calbec       :      0.71s CPU      0.71s WALL (    2130 calls)
     fft          :      0.18s CPU      0.19s WALL (     124 calls)
     ffts         :      0.01s CPU      0.01s WALL (      15 calls)
     fftw         :     16.03s CPU     16.39s WALL (   45310 calls)
     interpolate  :      0.04s CPU      0.04s WALL (      15 calls)
     davcio       :      0.00s CPU      0.01s WALL (      60 calls)

     Parallel routines
     fft_scatter  :      2.20s CPU      2.17s WALL (   45449 calls)

     PWSCF        :    26.91s CPU        28.76s WALL


   This run was terminated on:  15:34: 8  11Nov2017            

=------------------------------------------------------------------------------=
   JOB DONE.
=------------------------------------------------------------------------------=
