
     Program PWSCF v.6.1 (svn rev. 13369) starts on 23Nov2017 at  1:40:27 

     This program is part of the open-source Quantum ESPRESSO suite
     for quantum simulation of materials; please cite
         "P. Giannozzi et al., J. Phys.:Condens. Matter 21 395502 (2009);
          URL http://www.quantum-espresso.org", 
     in publications or presentations arising from this work. More details at
     http://www.quantum-espresso.org/quote

     Parallel version (MPI), running on     4 processors
     R & G space division:  proc/nbgrp/npool/nimage =       4
     Waiting for input...
     Reading input from standard input
     Message from routine read_cards :
     DEPRECATED: no units specified in ATOMIC_POSITIONS card
     Message from routine read_cards :
     ATOMIC_POSITIONS: units set to alat

     Current dimensions of program PWSCF are:
     Max number of different atomic species (ntypx) = 10
     Max number of k-points (npk) =  40000
     Max angular momentum in pseudopotentials (lmaxx) =  3

     Subspace diagonalization in iterative solution of the eigenvalue problem:
     a serial algorithm will be used


     Parallelization info
     --------------------
     sticks:   dense  smooth     PW     G-vecs:    dense   smooth      PW
     Min         549     274     84                16882     5993    1003
     Max         550     275     85                16883     5994    1005
     Sum        2197    1099    337                67529    23973    4015



     bravais-lattice index     =            2
     lattice parameter (alat)  =      12.6000  a.u.
     unit-cell volume          =     500.0940 (a.u.)^3
     number of atoms/cell      =            2
     number of atomic types    =            1
     number of electrons       =        28.00
     number of Kohn-Sham states=           14
     kinetic-energy cutoff     =      50.0000  Ry
     charge density cutoff     =     400.0000  Ry
     convergence threshold     =      1.0E-08
     mixing beta               =       0.7000
     number of iterations used =            8  plain     mixing
     Exchange-correlation      =  SLA  PW   PBX  PBC ( 1  4  3  4 0 0)

     celldm(1)=  12.600000  celldm(2)=   0.000000  celldm(3)=   0.000000
     celldm(4)=   0.000000  celldm(5)=   0.000000  celldm(6)=   0.000000

     crystal axes: (cart. coord. in units of alat)
               a(1) = (  -0.500000   0.000000   0.500000 )  
               a(2) = (   0.000000   0.500000   0.500000 )  
               a(3) = (  -0.500000   0.500000   0.000000 )  

     reciprocal axes: (cart. coord. in units 2 pi/alat)
               b(1) = ( -1.000000 -1.000000  1.000000 )  
               b(2) = (  1.000000  1.000000  1.000000 )  
               b(3) = ( -1.000000  1.000000 -1.000000 )  


     PseudoPot. # 1 for Sn read from file:
     /home/s1333534/quantum_espresso/qe-6.1/pseudo/sn_pbe_v1.4.uspp.F.UPF
     MD5 check sum: 469debedee59599fedebd795477fea03
     Pseudo is Ultrasoft + core correction, Zval = 14.0
     Generated by new atomic code, or converted to UPF format
     Using radial grid of  891 points,  6 beta functions with: 
                l(1) =   0
                l(2) =   0
                l(3) =   1
                l(4) =   1
                l(5) =   2
                l(6) =   2
     Q(r) pseudized with  8 coefficients,  rinner =    1.350   1.350   1.350
                                                       1.350   1.350

     atomic species   valence    mass     pseudopotential
        Sn            14.00   118.71000     Sn( 1.00)

     48 Sym. Ops., with inversion, found (24 have fractional translation)



   Cartesian axes

     site n.     atom                  positions (alat units)
         1           Sn  tau(   1) = (   0.0000000   0.0000000   0.0000000  )
         2           Sn  tau(   2) = (   0.2500000   0.2500000   0.2500000  )

     number of k points=   408

     Number of k-points >= 100: set verbosity='high' to print them.

     Dense  grid:    67529 G-vectors     FFT dimensions: (  60,  60,  60)

     Smooth grid:    23973 G-vectors     FFT dimensions: (  45,  45,  45)

     Estimated max dynamical RAM per process >      77.35MB

     Estimated total allocated dynamical RAM >     309.42MB

     Initial potential from superposition of free atoms

     starting charge   25.99991, renormalised to   28.00000
     Starting wfc are   18 randomized atomic wfcs

     total cpu time spent up to now is        8.1 secs

     per-process dynamical memory:    84.3 Mb

     Self-consistent Calculation

     iteration #  1     ecut=    50.00 Ry     beta=0.70
     Davidson diagonalization with overlap
     ethr =  1.00E-02,  avg # of iterations =  2.6

     total cpu time spent up to now is       30.1 secs

     total energy              =    -317.48421549 Ry
     Harris-Foulkes estimate   =    -319.55012461 Ry
     estimated scf accuracy    <       2.51700610 Ry

     iteration #  2     ecut=    50.00 Ry     beta=0.70
     Davidson diagonalization with overlap
     ethr =  8.99E-03,  avg # of iterations =  3.0

     total cpu time spent up to now is       54.4 secs

     total energy              =    -318.39365733 Ry
     Harris-Foulkes estimate   =    -318.71209723 Ry
     estimated scf accuracy    <       0.47396559 Ry

     iteration #  3     ecut=    50.00 Ry     beta=0.70
     Davidson diagonalization with overlap
     ethr =  1.69E-03,  avg # of iterations =  2.0

     total cpu time spent up to now is       75.7 secs

     total energy              =    -318.48884188 Ry
     Harris-Foulkes estimate   =    -318.49040997 Ry
     estimated scf accuracy    <       0.00287497 Ry

     iteration #  4     ecut=    50.00 Ry     beta=0.70
     Davidson diagonalization with overlap
     ethr =  1.03E-05,  avg # of iterations =  2.9

     total cpu time spent up to now is       98.3 secs

     total energy              =    -318.48972437 Ry
     Harris-Foulkes estimate   =    -318.48984107 Ry
     estimated scf accuracy    <       0.00017284 Ry

     iteration #  5     ecut=    50.00 Ry     beta=0.70
     Davidson diagonalization with overlap
     ethr =  6.17E-07,  avg # of iterations =  3.0

     total cpu time spent up to now is      121.3 secs

     total energy              =    -318.48977753 Ry
     Harris-Foulkes estimate   =    -318.48977825 Ry
     estimated scf accuracy    <       0.00000150 Ry

     iteration #  6     ecut=    50.00 Ry     beta=0.70
     Davidson diagonalization with overlap
     ethr =  5.34E-09,  avg # of iterations =  4.0

     total cpu time spent up to now is      145.9 secs

     total energy              =    -318.48977830 Ry
     Harris-Foulkes estimate   =    -318.48977835 Ry
     estimated scf accuracy    <       0.00000007 Ry

     iteration #  7     ecut=    50.00 Ry     beta=0.70
     Davidson diagonalization with overlap
     ethr =  2.48E-10,  avg # of iterations =  3.1

     total cpu time spent up to now is      169.3 secs

     End of self-consistent calculation

     Number of k-points >= 100: set verbosity='high' to print the bands.

     highest occupied level (ev):     6.9243

!    total energy              =    -318.48977833 Ry
     Harris-Foulkes estimate   =    -318.48977834 Ry
     estimated scf accuracy    <          2.6E-09 Ry

     The total energy is the sum of the following terms:

     one-electron contribution =    -162.75810555 Ry
     hartree contribution      =      97.81397582 Ry
     xc contribution           =     -85.95637612 Ry
     ewald contribution        =    -167.58927248 Ry

     convergence has been achieved in   7 iterations


     Computing stress (Cartesian axis) and pressure

          total   stress  (Ry/bohr**3)                   (kbar)     P=  -20.25
  -0.00013763   0.00000000   0.00000000        -20.25      0.00      0.00
   0.00000000  -0.00013763  -0.00000000          0.00    -20.25     -0.00
   0.00000000   0.00000000  -0.00013763          0.00      0.00    -20.25


     Writing output data file sn.a.12.6.16.save

     init_run     :      7.83s CPU      8.09s WALL (       1 calls)
     electrons    :    157.04s CPU    161.16s WALL (       1 calls)
     stress       :      3.38s CPU      3.41s WALL (       1 calls)

     Called by init_run:
     wfcinit      :      7.34s CPU      7.56s WALL (       1 calls)
     potinit      :      0.05s CPU      0.06s WALL (       1 calls)

     Called by electrons:
     c_bands      :    135.56s CPU    139.00s WALL (       7 calls)
     sum_band     :     20.65s CPU     21.25s WALL (       7 calls)
     v_of_rho     :      0.36s CPU      0.38s WALL (       8 calls)
     newd         :      0.50s CPU      0.58s WALL (       8 calls)
     mix_rho      :      0.03s CPU      0.03s WALL (       7 calls)

     Called by c_bands:
     init_us_2    :      2.76s CPU      2.81s WALL (    6528 calls)
     cegterg      :    130.53s CPU    133.90s WALL (    2856 calls)

     Called by sum_band:
     sum_band:bec :      0.02s CPU      0.03s WALL (    2856 calls)
     addusdens    :      0.54s CPU      0.64s WALL (       7 calls)

     Called by *egterg:
     h_psi        :    119.13s CPU    122.43s WALL (   11700 calls)
     s_psi        :      1.88s CPU      1.91s WALL (   11700 calls)
     g_psi        :      0.53s CPU      0.54s WALL (    8436 calls)
     cdiaghg      :      4.96s CPU      4.99s WALL (   11292 calls)

     Called by h_psi:
     h_psi:pot    :    118.13s CPU    121.42s WALL (   11700 calls)
     h_psi:calbec :      3.30s CPU      3.37s WALL (   11700 calls)
     vloc_psi     :    112.31s CPU    115.44s WALL (   11700 calls)
     add_vuspsi   :      2.52s CPU      2.56s WALL (   11700 calls)

     General routines
     calbec       :      4.20s CPU      4.27s WALL (   14964 calls)
     fft          :      0.18s CPU      0.19s WALL (     138 calls)
     ffts         :      0.01s CPU      0.01s WALL (      15 calls)
     fftw         :    108.52s CPU    111.60s WALL (  309998 calls)
     interpolate  :      0.04s CPU      0.04s WALL (      15 calls)
     davcio       :      0.01s CPU      0.04s WALL (     408 calls)

     Parallel routines
     fft_scatter  :     13.45s CPU     13.80s WALL (  310151 calls)

     PWSCF        :  2m48.70s CPU     2m53.20s WALL


   This run was terminated on:   1:43:20  23Nov2017            

=------------------------------------------------------------------------------=
   JOB DONE.
=------------------------------------------------------------------------------=
