
     Program PWSCF v.6.1 (svn rev. 13369) starts on 23Nov2017 at  1:35:42 

     This program is part of the open-source Quantum ESPRESSO suite
     for quantum simulation of materials; please cite
         "P. Giannozzi et al., J. Phys.:Condens. Matter 21 395502 (2009);
          URL http://www.quantum-espresso.org", 
     in publications or presentations arising from this work. More details at
     http://www.quantum-espresso.org/quote

     Parallel version (MPI), running on     4 processors
     R & G space division:  proc/nbgrp/npool/nimage =       4
     Waiting for input...
     Reading input from standard input
     Message from routine read_cards :
     DEPRECATED: no units specified in ATOMIC_POSITIONS card
     Message from routine read_cards :
     ATOMIC_POSITIONS: units set to alat

     Current dimensions of program PWSCF are:
     Max number of different atomic species (ntypx) = 10
     Max number of k-points (npk) =  40000
     Max angular momentum in pseudopotentials (lmaxx) =  3

     Subspace diagonalization in iterative solution of the eigenvalue problem:
     a serial algorithm will be used


     Parallelization info
     --------------------
     sticks:   dense  smooth     PW     G-vecs:    dense   smooth      PW
     Min         548     274     78                16882     5993     958
     Max         550     275     79                16883     5994     963
     Sum        2197    1099    313                67529    23973    3839



     bravais-lattice index     =            2
     lattice parameter (alat)  =      12.6000  a.u.
     unit-cell volume          =     500.0940 (a.u.)^3
     number of atoms/cell      =            2
     number of atomic types    =            1
     number of electrons       =        28.00
     number of Kohn-Sham states=           14
     kinetic-energy cutoff     =      50.0000  Ry
     charge density cutoff     =     400.0000  Ry
     convergence threshold     =      1.0E-08
     mixing beta               =       0.7000
     number of iterations used =            8  plain     mixing
     Exchange-correlation      =  SLA  PW   PBX  PBC ( 1  4  3  4 0 0)

     celldm(1)=  12.600000  celldm(2)=   0.000000  celldm(3)=   0.000000
     celldm(4)=   0.000000  celldm(5)=   0.000000  celldm(6)=   0.000000

     crystal axes: (cart. coord. in units of alat)
               a(1) = (  -0.500000   0.000000   0.500000 )  
               a(2) = (   0.000000   0.500000   0.500000 )  
               a(3) = (  -0.500000   0.500000   0.000000 )  

     reciprocal axes: (cart. coord. in units 2 pi/alat)
               b(1) = ( -1.000000 -1.000000  1.000000 )  
               b(2) = (  1.000000  1.000000  1.000000 )  
               b(3) = ( -1.000000  1.000000 -1.000000 )  


     PseudoPot. # 1 for Sn read from file:
     /home/s1333534/quantum_espresso/qe-6.1/pseudo/sn_pbe_v1.4.uspp.F.UPF
     MD5 check sum: 469debedee59599fedebd795477fea03
     Pseudo is Ultrasoft + core correction, Zval = 14.0
     Generated by new atomic code, or converted to UPF format
     Using radial grid of  891 points,  6 beta functions with: 
                l(1) =   0
                l(2) =   0
                l(3) =   1
                l(4) =   1
                l(5) =   2
                l(6) =   2
     Q(r) pseudized with  8 coefficients,  rinner =    1.350   1.350   1.350
                                                       1.350   1.350

     atomic species   valence    mass     pseudopotential
        Sn            14.00   118.71000     Sn( 1.00)

     48 Sym. Ops., with inversion, found (24 have fractional translation)



   Cartesian axes

     site n.     atom                  positions (alat units)
         1           Sn  tau(   1) = (   0.0000000   0.0000000   0.0000000  )
         2           Sn  tau(   2) = (   0.2500000   0.2500000   0.2500000  )

     number of k points=    28
                       cart. coord. in units 2pi/alat
        k(    1) = (  -0.0833333   0.0833333   0.0833333), wk =   0.0185185
        k(    2) = (  -0.2500000   0.2500000  -0.0833333), wk =   0.0555556
        k(    3) = (  -0.4166667   0.4166667  -0.2500000), wk =   0.0555556
        k(    4) = (   0.4166667  -0.4166667   0.5833333), wk =   0.0555556
        k(    5) = (   0.2500000  -0.2500000   0.4166667), wk =   0.0555556
        k(    6) = (   0.0833333  -0.0833333   0.2500000), wk =   0.0555556
        k(    7) = (  -0.0833333   0.4166667   0.0833333), wk =   0.0555556
        k(    8) = (  -0.2500000   0.5833333  -0.0833333), wk =   0.1111111
        k(    9) = (   0.5833333  -0.2500000   0.7500000), wk =   0.1111111
        k(   10) = (   0.4166667  -0.0833333   0.5833333), wk =   0.1111111
        k(   11) = (   0.2500000   0.0833333   0.4166667), wk =   0.1111111
        k(   12) = (  -0.0833333   0.7500000   0.0833333), wk =   0.0555556
        k(   13) = (   0.7500000  -0.0833333   0.9166667), wk =   0.1111111
        k(   14) = (   0.5833333   0.0833333   0.7500000), wk =   0.1111111
        k(   15) = (   0.4166667   0.2500000   0.5833333), wk =   0.1111111
        k(   16) = (  -0.0833333  -0.9166667   0.0833333), wk =   0.0555556
        k(   17) = (  -0.2500000  -0.7500000  -0.0833333), wk =   0.1111111
        k(   18) = (  -0.0833333  -0.5833333   0.0833333), wk =   0.0555556
        k(   19) = (  -0.2500000   0.2500000   0.2500000), wk =   0.0185185
        k(   20) = (  -0.4166667   0.4166667   0.0833333), wk =   0.0555556
        k(   21) = (   0.4166667  -0.4166667   0.9166667), wk =   0.0555556
        k(   22) = (   0.2500000  -0.2500000   0.7500000), wk =   0.0555556
        k(   23) = (  -0.2500000   0.5833333   0.2500000), wk =   0.0555556
        k(   24) = (   0.5833333  -0.2500000   1.0833333), wk =   0.1111111
        k(   25) = (   0.4166667  -0.0833333   0.9166667), wk =   0.1111111
        k(   26) = (  -0.2500000  -1.0833333   0.2500000), wk =   0.0555556
        k(   27) = (  -0.4166667   0.4166667   0.4166667), wk =   0.0185185
        k(   28) = (   0.4166667  -0.4166667   1.2500000), wk =   0.0555556

     Dense  grid:    67529 G-vectors     FFT dimensions: (  60,  60,  60)

     Smooth grid:    23973 G-vectors     FFT dimensions: (  45,  45,  45)

     Estimated max dynamical RAM per process >      16.80MB

     Estimated total allocated dynamical RAM >      67.19MB

     Initial potential from superposition of free atoms

     starting charge   25.99991, renormalised to   28.00000
     Starting wfc are   18 randomized atomic wfcs

     total cpu time spent up to now is        1.4 secs

     per-process dynamical memory:    20.6 Mb

     Self-consistent Calculation

     iteration #  1     ecut=    50.00 Ry     beta=0.70
     Davidson diagonalization with overlap
     ethr =  1.00E-02,  avg # of iterations =  2.5

     total cpu time spent up to now is        3.1 secs

     total energy              =    -317.48415553 Ry
     Harris-Foulkes estimate   =    -319.54999389 Ry
     estimated scf accuracy    <       2.51693265 Ry

     iteration #  2     ecut=    50.00 Ry     beta=0.70
     Davidson diagonalization with overlap
     ethr =  8.99E-03,  avg # of iterations =  3.0

     total cpu time spent up to now is        5.0 secs

     total energy              =    -318.39349767 Ry
     Harris-Foulkes estimate   =    -318.71190946 Ry
     estimated scf accuracy    <       0.47395884 Ry

     iteration #  3     ecut=    50.00 Ry     beta=0.70
     Davidson diagonalization with overlap
     ethr =  1.69E-03,  avg # of iterations =  2.0

     total cpu time spent up to now is        6.7 secs

     total energy              =    -318.48868520 Ry
     Harris-Foulkes estimate   =    -318.49025474 Ry
     estimated scf accuracy    <       0.00288143 Ry

     iteration #  4     ecut=    50.00 Ry     beta=0.70
     Davidson diagonalization with overlap
     ethr =  1.03E-05,  avg # of iterations =  3.1

     total cpu time spent up to now is        8.5 secs

     total energy              =    -318.48957786 Ry
     Harris-Foulkes estimate   =    -318.48969504 Ry
     estimated scf accuracy    <       0.00017366 Ry

     iteration #  5     ecut=    50.00 Ry     beta=0.70
     Davidson diagonalization with overlap
     ethr =  6.20E-07,  avg # of iterations =  3.0

     total cpu time spent up to now is       10.2 secs

     total energy              =    -318.48963089 Ry
     Harris-Foulkes estimate   =    -318.48963156 Ry
     estimated scf accuracy    <       0.00000143 Ry

     iteration #  6     ecut=    50.00 Ry     beta=0.70
     Davidson diagonalization with overlap
     ethr =  5.12E-09,  avg # of iterations =  4.0

     total cpu time spent up to now is       12.1 secs

     total energy              =    -318.48963164 Ry
     Harris-Foulkes estimate   =    -318.48963169 Ry
     estimated scf accuracy    <       0.00000008 Ry

     iteration #  7     ecut=    50.00 Ry     beta=0.70
     Davidson diagonalization with overlap
     ethr =  2.95E-10,  avg # of iterations =  3.1

     total cpu time spent up to now is       14.0 secs

     End of self-consistent calculation

          k =-0.0833 0.0833 0.0833 (  2975 PWs)   bands (ev):

   -14.7021 -14.7021 -14.6962 -14.6438 -14.6438 -14.4150 -14.4150 -14.4028
   -14.3874 -14.3874  -3.1683   5.0338   6.8203   6.8203

          k =-0.2500 0.2500-0.0833 (  2969 PWs)   bands (ev):

   -14.7185 -14.7129 -14.6884 -14.6281 -14.6178 -14.4450 -14.4327 -14.4036
   -14.3784 -14.3658  -2.8456   3.4572   5.8015   6.5894

          k =-0.4167 0.4167-0.2500 (  2978 PWs)   bands (ev):

   -14.7285 -14.7282 -14.6714 -14.6082 -14.5969 -14.4618 -14.4481 -14.4296
   -14.3583 -14.3558  -2.1349   1.5791   5.2931   6.0375

          k = 0.4167-0.4167 0.5833 (  2980 PWs)   bands (ev):

   -14.7344 -14.7279 -14.6659 -14.5979 -14.5964 -14.4621 -14.4572 -14.4353
   -14.3570 -14.3507  -1.7312   0.8559   5.2718   5.7409

          k = 0.2500-0.2500 0.4167 (  2971 PWs)   bands (ev):

   -14.7281 -14.7206 -14.6797 -14.6135 -14.5997 -14.4652 -14.4406 -14.4167
   -14.3669 -14.3565  -2.3953   2.1488   5.6696   5.8392

          k = 0.0833-0.0833 0.2500 (  2968 PWs)   bands (ev):

   -14.7108 -14.7068 -14.6962 -14.6370 -14.6244 -14.4439 -14.4163 -14.3975
   -14.3857 -14.3742  -3.0046   4.1338   6.3089   6.3234

          k =-0.0833 0.4167 0.0833 (  2965 PWs)   bands (ev):

   -14.7198 -14.7154 -14.6953 -14.6222 -14.5936 -14.4813 -14.4281 -14.3912
   -14.3758 -14.3664  -2.6798   3.0876   5.6420   5.7230

          k =-0.2500 0.5833-0.0833 (  2983 PWs)   bands (ev):

   -14.7367 -14.7304 -14.6692 -14.5989 -14.5644 -14.5114 -14.4522 -14.4192
   -14.3558 -14.3482  -2.0710   1.7454   4.7066   5.3868

          k = 0.5833-0.2500 0.7500 (  2989 PWs)   bands (ev):

   -14.7508 -14.7367 -14.6399 -14.5775 -14.5642 -14.5064 -14.4788 -14.4504
   -14.3468 -14.3328  -1.3916   0.6574   4.1961   5.2341

          k = 0.4167-0.0833 0.5833 (  2993 PWs)   bands (ev):

   -14.7444 -14.7360 -14.6477 -14.5963 -14.5682 -14.4979 -14.4584 -14.4494
   -14.3472 -14.3411  -1.8249   1.3062   4.2629   5.5741

          k = 0.2500 0.0833 0.4167 (  2970 PWs)   bands (ev):

   -14.7268 -14.7217 -14.6806 -14.6175 -14.5952 -14.4739 -14.4368 -14.4107
   -14.3678 -14.3574  -2.5315   2.6135   5.2075   6.0440

          k =-0.0833 0.7500 0.0833 (  2985 PWs)   bands (ev):

   -14.7383 -14.7342 -14.6676 -14.5719 -14.5647 -14.5185 -14.4767 -14.4159
   -14.3503 -14.3460  -1.5740   1.0151   4.6872   4.8853

          k = 0.7500-0.0833 0.9167 (  2984 PWs)   bands (ev):

   -14.7502 -14.7427 -14.6264 -14.5856 -14.5418 -14.5087 -14.4970 -14.4578
   -14.3397 -14.3320  -0.7861   0.0528   4.1688   4.6396

          k = 0.5833 0.0833 0.7500 (  2995 PWs)   bands (ev):

   -14.7566 -14.7411 -14.6255 -14.5591 -14.5433 -14.5291 -14.5012 -14.4603
   -14.3414 -14.3265  -1.0986   0.3987   3.8421   5.0346

          k = 0.4167 0.2500 0.5833 (  2991 PWs)   bands (ev):

   -14.7407 -14.7311 -14.6574 -14.5972 -14.5833 -14.4806 -14.4575 -14.4407
   -14.3537 -14.3442  -1.7798   1.0658   4.7428   5.6291

          k =-0.0833-0.9167 0.0833 (  2982 PWs)   bands (ev):

   -14.7429 -14.7393 -14.6402 -14.6041 -14.5405 -14.5079 -14.4802 -14.4440
   -14.3433 -14.3393  -0.8177   0.0574   4.4880   4.7083

          k =-0.2500-0.7500-0.0833 (  2990 PWs)   bands (ev):

   -14.7455 -14.7380 -14.6510 -14.5726 -14.5510 -14.5294 -14.4780 -14.4348
   -14.3459 -14.3382  -1.4788   0.8819   4.3525   4.8955

          k =-0.0833-0.5833 0.0833 (  2983 PWs)   bands (ev):

   -14.7300 -14.7256 -14.6862 -14.5999 -14.5573 -14.5227 -14.4495 -14.3971
   -14.3622 -14.3568  -2.1997   2.0352   5.0784   5.2308

          k =-0.2500 0.2500 0.2500 (  2959 PWs)   bands (ev):

   -14.7179 -14.7179 -14.6866 -14.6184 -14.6184 -14.4403 -14.4403 -14.4140
   -14.3674 -14.3674  -2.6934   2.8668   6.2721   6.2721

          k =-0.4167 0.4167 0.0833 (  2981 PWs)   bands (ev):

   -14.7336 -14.7313 -14.6628 -14.6106 -14.5877 -14.4729 -14.4490 -14.4335
   -14.3544 -14.3517  -2.2417   1.9711   4.6782   6.1042

          k = 0.4167-0.4167 0.9167 (  2992 PWs)   bands (ev):

   -14.7526 -14.7375 -14.6350 -14.5808 -14.5619 -14.4949 -14.4902 -14.4554
   -14.3451 -14.3316  -1.4863   0.8376   3.9467   5.5036

          k = 0.2500-0.2500 0.7500 (  2988 PWs)   bands (ev):

   -14.7504 -14.7345 -14.6485 -14.5736 -14.5504 -14.5278 -14.4779 -14.4383
   -14.3495 -14.3333  -1.4369   0.7700   4.2270   5.1466

          k =-0.2500 0.5833 0.2500 (  2984 PWs)   bands (ev):

   -14.7400 -14.7272 -14.6668 -14.5983 -14.5752 -14.4972 -14.4540 -14.4240
   -14.3591 -14.3445  -1.9661   1.4439   4.8571   5.4399

          k = 0.5833-0.2500 1.0833 (  2997 PWs)   bands (ev):

   -14.7520 -14.7423 -14.6303 -14.5728 -14.5427 -14.5306 -14.4841 -14.4579
   -14.3407 -14.3316  -1.3075   0.6542   4.0259   4.9313

          k = 0.4167-0.0833 0.9167 (  2998 PWs)   bands (ev):

   -14.7549 -14.7478 -14.6087 -14.5645 -14.5452 -14.5167 -14.5092 -14.4746
   -14.3345 -14.3276  -0.7525   0.0459   3.9734   4.4876

          k =-0.2500-1.0833 0.2500 (  2989 PWs)   bands (ev):

   -14.7561 -14.7392 -14.6305 -14.5581 -14.5453 -14.5232 -14.5062 -14.4543
   -14.3431 -14.3266  -0.9056   0.1810   3.8854   4.9930

          k =-0.4167 0.4167 0.4167 (  2977 PWs)   bands (ev):

   -14.7259 -14.7259 -14.6767 -14.6032 -14.6032 -14.4528 -14.4528 -14.4266
   -14.3593 -14.3593  -1.9463   1.1437   5.9068   5.9068

          k = 0.4167-0.4167 1.2500 (  2991 PWs)   bands (ev):

   -14.7455 -14.7335 -14.6481 -14.5880 -14.5811 -14.4763 -14.4753 -14.4482
   -14.3505 -14.3390  -1.5642   0.7801   4.4639   5.5910

     highest occupied level (ev):     6.8203

!    total energy              =    -318.48963167 Ry
     Harris-Foulkes estimate   =    -318.48963167 Ry
     estimated scf accuracy    <          2.3E-09 Ry

     The total energy is the sum of the following terms:

     one-electron contribution =    -162.75932904 Ry
     hartree contribution      =      97.81550508 Ry
     xc contribution           =     -85.95653523 Ry
     ewald contribution        =    -167.58927248 Ry

     convergence has been achieved in   7 iterations


     Computing stress (Cartesian axis) and pressure

          total   stress  (Ry/bohr**3)                   (kbar)     P=  -20.33
  -0.00013817  -0.00000000  -0.00000000        -20.33     -0.00     -0.00
  -0.00000000  -0.00013817   0.00000000         -0.00    -20.33      0.00
  -0.00000000   0.00000000  -0.00013817         -0.00      0.00    -20.33


     Writing output data file sn.a.12.6.6.save

     init_run     :      1.05s CPU      1.16s WALL (       1 calls)
     electrons    :     12.15s CPU     12.60s WALL (       1 calls)
     stress       :      0.78s CPU      0.81s WALL (       1 calls)

     Called by init_run:
     wfcinit      :      0.53s CPU      0.58s WALL (       1 calls)
     potinit      :      0.09s CPU      0.09s WALL (       1 calls)

     Called by electrons:
     c_bands      :      9.24s CPU      9.46s WALL (       7 calls)
     sum_band     :      2.03s CPU      2.18s WALL (       7 calls)
     v_of_rho     :      0.39s CPU      0.41s WALL (       8 calls)
     newd         :      0.55s CPU      0.64s WALL (       8 calls)
     mix_rho      :      0.03s CPU      0.06s WALL (       7 calls)

     Called by c_bands:
     init_us_2    :      0.20s CPU      0.21s WALL (     448 calls)
     cegterg      :      8.90s CPU      9.10s WALL (     196 calls)

     Called by sum_band:
     sum_band:bec :      0.00s CPU      0.00s WALL (     196 calls)
     addusdens    :      0.54s CPU      0.64s WALL (       7 calls)

     Called by *egterg:
     h_psi        :      8.15s CPU      8.37s WALL (     807 calls)
     s_psi        :      0.12s CPU      0.12s WALL (     807 calls)
     g_psi        :      0.04s CPU      0.04s WALL (     583 calls)
     cdiaghg      :      0.34s CPU      0.36s WALL (     779 calls)

     Called by h_psi:
     h_psi:pot    :      8.07s CPU      8.30s WALL (     807 calls)
     h_psi:calbec :      0.24s CPU      0.25s WALL (     807 calls)
     vloc_psi     :      7.65s CPU      7.86s WALL (     807 calls)
     add_vuspsi   :      0.18s CPU      0.18s WALL (     807 calls)

     General routines
     calbec       :      0.31s CPU      0.32s WALL (    1031 calls)
     fft          :      0.23s CPU      0.24s WALL (     138 calls)
     ffts         :      0.01s CPU      0.01s WALL (      15 calls)
     fftw         :      7.42s CPU      7.66s WALL (   21254 calls)
     interpolate  :      0.05s CPU      0.06s WALL (      15 calls)
     davcio       :      0.00s CPU      0.00s WALL (      28 calls)

     Parallel routines
     fft_scatter  :      1.06s CPU      1.06s WALL (   21407 calls)

     PWSCF        :    14.09s CPU        14.88s WALL


   This run was terminated on:   1:35:57  23Nov2017            

=------------------------------------------------------------------------------=
   JOB DONE.
=------------------------------------------------------------------------------=
