
     Program PWSCF v.6.1 (svn rev. 13369) starts on 23Nov2017 at  1:35:57 

     This program is part of the open-source Quantum ESPRESSO suite
     for quantum simulation of materials; please cite
         "P. Giannozzi et al., J. Phys.:Condens. Matter 21 395502 (2009);
          URL http://www.quantum-espresso.org", 
     in publications or presentations arising from this work. More details at
     http://www.quantum-espresso.org/quote

     Parallel version (MPI), running on     4 processors
     R & G space division:  proc/nbgrp/npool/nimage =       4
     Waiting for input...
     Reading input from standard input
     Message from routine read_cards :
     DEPRECATED: no units specified in ATOMIC_POSITIONS card
     Message from routine read_cards :
     ATOMIC_POSITIONS: units set to alat

     Current dimensions of program PWSCF are:
     Max number of different atomic species (ntypx) = 10
     Max number of k-points (npk) =  40000
     Max angular momentum in pseudopotentials (lmaxx) =  3

     Subspace diagonalization in iterative solution of the eigenvalue problem:
     a serial algorithm will be used


     Parallelization info
     --------------------
     sticks:   dense  smooth     PW     G-vecs:    dense   smooth      PW
     Min         549     274     84                16882     5993    1003
     Max         550     275     85                16883     5994    1005
     Sum        2197    1099    337                67529    23973    4015



     bravais-lattice index     =            2
     lattice parameter (alat)  =      12.6000  a.u.
     unit-cell volume          =     500.0940 (a.u.)^3
     number of atoms/cell      =            2
     number of atomic types    =            1
     number of electrons       =        28.00
     number of Kohn-Sham states=           14
     kinetic-energy cutoff     =      50.0000  Ry
     charge density cutoff     =     400.0000  Ry
     convergence threshold     =      1.0E-08
     mixing beta               =       0.7000
     number of iterations used =            8  plain     mixing
     Exchange-correlation      =  SLA  PW   PBX  PBC ( 1  4  3  4 0 0)

     celldm(1)=  12.600000  celldm(2)=   0.000000  celldm(3)=   0.000000
     celldm(4)=   0.000000  celldm(5)=   0.000000  celldm(6)=   0.000000

     crystal axes: (cart. coord. in units of alat)
               a(1) = (  -0.500000   0.000000   0.500000 )  
               a(2) = (   0.000000   0.500000   0.500000 )  
               a(3) = (  -0.500000   0.500000   0.000000 )  

     reciprocal axes: (cart. coord. in units 2 pi/alat)
               b(1) = ( -1.000000 -1.000000  1.000000 )  
               b(2) = (  1.000000  1.000000  1.000000 )  
               b(3) = ( -1.000000  1.000000 -1.000000 )  


     PseudoPot. # 1 for Sn read from file:
     /home/s1333534/quantum_espresso/qe-6.1/pseudo/sn_pbe_v1.4.uspp.F.UPF
     MD5 check sum: 469debedee59599fedebd795477fea03
     Pseudo is Ultrasoft + core correction, Zval = 14.0
     Generated by new atomic code, or converted to UPF format
     Using radial grid of  891 points,  6 beta functions with: 
                l(1) =   0
                l(2) =   0
                l(3) =   1
                l(4) =   1
                l(5) =   2
                l(6) =   2
     Q(r) pseudized with  8 coefficients,  rinner =    1.350   1.350   1.350
                                                       1.350   1.350

     atomic species   valence    mass     pseudopotential
        Sn            14.00   118.71000     Sn( 1.00)

     48 Sym. Ops., with inversion, found (24 have fractional translation)



   Cartesian axes

     site n.     atom                  positions (alat units)
         1           Sn  tau(   1) = (   0.0000000   0.0000000   0.0000000  )
         2           Sn  tau(   2) = (   0.2500000   0.2500000   0.2500000  )

     number of k points=    60
                       cart. coord. in units 2pi/alat
        k(    1) = (  -0.0625000   0.0625000   0.0625000), wk =   0.0078125
        k(    2) = (  -0.1875000   0.1875000  -0.0625000), wk =   0.0234375
        k(    3) = (  -0.3125000   0.3125000  -0.1875000), wk =   0.0234375
        k(    4) = (  -0.4375000   0.4375000  -0.3125000), wk =   0.0234375
        k(    5) = (   0.4375000  -0.4375000   0.5625000), wk =   0.0234375
        k(    6) = (   0.3125000  -0.3125000   0.4375000), wk =   0.0234375
        k(    7) = (   0.1875000  -0.1875000   0.3125000), wk =   0.0234375
        k(    8) = (   0.0625000  -0.0625000   0.1875000), wk =   0.0234375
        k(    9) = (  -0.0625000   0.3125000   0.0625000), wk =   0.0234375
        k(   10) = (  -0.1875000   0.4375000  -0.0625000), wk =   0.0468750
        k(   11) = (  -0.3125000   0.5625000  -0.1875000), wk =   0.0468750
        k(   12) = (   0.5625000  -0.3125000   0.6875000), wk =   0.0468750
        k(   13) = (   0.4375000  -0.1875000   0.5625000), wk =   0.0468750
        k(   14) = (   0.3125000  -0.0625000   0.4375000), wk =   0.0468750
        k(   15) = (   0.1875000   0.0625000   0.3125000), wk =   0.0468750
        k(   16) = (  -0.0625000   0.5625000   0.0625000), wk =   0.0234375
        k(   17) = (  -0.1875000   0.6875000  -0.0625000), wk =   0.0468750
        k(   18) = (   0.6875000  -0.1875000   0.8125000), wk =   0.0468750
        k(   19) = (   0.5625000  -0.0625000   0.6875000), wk =   0.0468750
        k(   20) = (   0.4375000   0.0625000   0.5625000), wk =   0.0468750
        k(   21) = (   0.3125000   0.1875000   0.4375000), wk =   0.0468750
        k(   22) = (  -0.0625000   0.8125000   0.0625000), wk =   0.0234375
        k(   23) = (   0.8125000  -0.0625000   0.9375000), wk =   0.0468750
        k(   24) = (   0.6875000   0.0625000   0.8125000), wk =   0.0468750
        k(   25) = (   0.5625000   0.1875000   0.6875000), wk =   0.0468750
        k(   26) = (   0.4375000   0.3125000   0.5625000), wk =   0.0468750
        k(   27) = (  -0.0625000  -0.9375000   0.0625000), wk =   0.0234375
        k(   28) = (  -0.1875000  -0.8125000  -0.0625000), wk =   0.0468750
        k(   29) = (  -0.3125000  -0.6875000  -0.1875000), wk =   0.0468750
        k(   30) = (  -0.0625000  -0.6875000   0.0625000), wk =   0.0234375
        k(   31) = (  -0.1875000  -0.5625000  -0.0625000), wk =   0.0468750
        k(   32) = (  -0.0625000  -0.4375000   0.0625000), wk =   0.0234375
        k(   33) = (  -0.1875000   0.1875000   0.1875000), wk =   0.0078125
        k(   34) = (  -0.3125000   0.3125000   0.0625000), wk =   0.0234375
        k(   35) = (  -0.4375000   0.4375000  -0.0625000), wk =   0.0234375
        k(   36) = (   0.4375000  -0.4375000   0.8125000), wk =   0.0234375
        k(   37) = (   0.3125000  -0.3125000   0.6875000), wk =   0.0234375
        k(   38) = (   0.1875000  -0.1875000   0.5625000), wk =   0.0234375
        k(   39) = (  -0.1875000   0.4375000   0.1875000), wk =   0.0234375
        k(   40) = (  -0.3125000   0.5625000   0.0625000), wk =   0.0468750
        k(   41) = (   0.5625000  -0.3125000   0.9375000), wk =   0.0468750
        k(   42) = (   0.4375000  -0.1875000   0.8125000), wk =   0.0468750
        k(   43) = (   0.3125000  -0.0625000   0.6875000), wk =   0.0468750
        k(   44) = (  -0.1875000   0.6875000   0.1875000), wk =   0.0234375
        k(   45) = (   0.6875000  -0.1875000   1.0625000), wk =   0.0468750
        k(   46) = (   0.5625000  -0.0625000   0.9375000), wk =   0.0468750
        k(   47) = (   0.4375000   0.0625000   0.8125000), wk =   0.0468750
        k(   48) = (  -0.1875000  -1.0625000   0.1875000), wk =   0.0234375
        k(   49) = (  -0.3125000  -0.9375000   0.0625000), wk =   0.0468750
        k(   50) = (  -0.1875000  -0.8125000   0.1875000), wk =   0.0234375
        k(   51) = (  -0.3125000   0.3125000   0.3125000), wk =   0.0078125
        k(   52) = (  -0.4375000   0.4375000   0.1875000), wk =   0.0234375
        k(   53) = (   0.4375000  -0.4375000   1.0625000), wk =   0.0234375
        k(   54) = (   0.3125000  -0.3125000   0.9375000), wk =   0.0234375
        k(   55) = (  -0.3125000   0.5625000   0.3125000), wk =   0.0234375
        k(   56) = (   0.5625000  -0.3125000   1.1875000), wk =   0.0468750
        k(   57) = (   0.4375000  -0.1875000   1.0625000), wk =   0.0468750
        k(   58) = (  -0.3125000  -1.1875000   0.3125000), wk =   0.0234375
        k(   59) = (  -0.4375000   0.4375000   0.4375000), wk =   0.0078125
        k(   60) = (   0.4375000  -0.4375000   1.3125000), wk =   0.0234375

     Dense  grid:    67529 G-vectors     FFT dimensions: (  60,  60,  60)

     Smooth grid:    23973 G-vectors     FFT dimensions: (  45,  45,  45)

     Estimated max dynamical RAM per process >      21.90MB

     Estimated total allocated dynamical RAM >      87.59MB

     Initial potential from superposition of free atoms

     starting charge   25.99991, renormalised to   28.00000
     Starting wfc are   18 randomized atomic wfcs

     total cpu time spent up to now is        1.7 secs

     per-process dynamical memory:    26.0 Mb

     Self-consistent Calculation

     iteration #  1     ecut=    50.00 Ry     beta=0.70
     Davidson diagonalization with overlap
     ethr =  1.00E-02,  avg # of iterations =  2.6

     total cpu time spent up to now is        5.0 secs

     total energy              =    -317.48397396 Ry
     Harris-Foulkes estimate   =    -319.55013085 Ry
     estimated scf accuracy    <       2.51731798 Ry

     iteration #  2     ecut=    50.00 Ry     beta=0.70
     Davidson diagonalization with overlap
     ethr =  8.99E-03,  avg # of iterations =  3.0

     total cpu time spent up to now is        8.8 secs

     total energy              =    -318.39359165 Ry
     Harris-Foulkes estimate   =    -318.71215967 Ry
     estimated scf accuracy    <       0.47417021 Ry

     iteration #  3     ecut=    50.00 Ry     beta=0.70
     Davidson diagonalization with overlap
     ethr =  1.69E-03,  avg # of iterations =  2.0

     total cpu time spent up to now is       12.2 secs

     total energy              =    -318.48880323 Ry
     Harris-Foulkes estimate   =    -318.49037269 Ry
     estimated scf accuracy    <       0.00287840 Ry

     iteration #  4     ecut=    50.00 Ry     beta=0.70
     Davidson diagonalization with overlap
     ethr =  1.03E-05,  avg # of iterations =  3.0

     total cpu time spent up to now is       15.6 secs

     total energy              =    -318.48968788 Ry
     Harris-Foulkes estimate   =    -318.48980523 Ry
     estimated scf accuracy    <       0.00017376 Ry

     iteration #  5     ecut=    50.00 Ry     beta=0.70
     Davidson diagonalization with overlap
     ethr =  6.21E-07,  avg # of iterations =  3.0

     total cpu time spent up to now is       19.2 secs

     total energy              =    -318.48974142 Ry
     Harris-Foulkes estimate   =    -318.48974218 Ry
     estimated scf accuracy    <       0.00000155 Ry

     iteration #  6     ecut=    50.00 Ry     beta=0.70
     Davidson diagonalization with overlap
     ethr =  5.55E-09,  avg # of iterations =  4.0

     total cpu time spent up to now is       23.0 secs

     total energy              =    -318.48974220 Ry
     Harris-Foulkes estimate   =    -318.48974224 Ry
     estimated scf accuracy    <       0.00000007 Ry

     iteration #  7     ecut=    50.00 Ry     beta=0.70
     Davidson diagonalization with overlap
     ethr =  2.50E-10,  avg # of iterations =  3.1

     total cpu time spent up to now is       26.6 secs

     End of self-consistent calculation

          k =-0.0625 0.0625 0.0625 (  2966 PWs)   bands (ev):

   -14.7010 -14.7010 -14.6974 -14.6464 -14.6464 -14.4117 -14.4117 -14.4024
   -14.3909 -14.3909  -3.1958   5.2692   6.8709   6.8709

          k =-0.1875 0.1875-0.0625 (  2975 PWs)   bands (ev):

   -14.7127 -14.7076 -14.6938 -14.6361 -14.6296 -14.4346 -14.4252 -14.4002
   -14.3855 -14.3736  -3.0122   4.1205   6.1990   6.7346

          k =-0.3125 0.3125-0.1875 (  2972 PWs)   bands (ev):

   -14.7235 -14.7203 -14.6831 -14.6186 -14.6094 -14.4524 -14.4408 -14.4155
   -14.3690 -14.3616  -2.5760   2.5730   5.7086   6.3168

          k =-0.4375 0.4375-0.3125 (  2981 PWs)   bands (ev):

   -14.7287 -14.7284 -14.6730 -14.6061 -14.5989 -14.4597 -14.4506 -14.4306
   -14.3585 -14.3571  -2.0012   1.2867   5.4635   5.9616

          k = 0.4375-0.4375 0.5625 (  2978 PWs)   bands (ev):

   -14.7319 -14.7279 -14.6698 -14.6001 -14.5993 -14.4587 -14.4563 -14.4336
   -14.3582 -14.3541  -1.7472   0.8484   5.4623   5.7901

          k = 0.3125-0.3125 0.4375 (  2976 PWs)   bands (ev):

   -14.7295 -14.7237 -14.6771 -14.6091 -14.6006 -14.4616 -14.4467 -14.4237
   -14.3638 -14.3561  -2.1910   1.6577   5.6896   5.8395

          k = 0.1875-0.1875 0.3125 (  2963 PWs)   bands (ev):

   -14.7204 -14.7151 -14.6884 -14.6247 -14.6138 -14.4520 -14.4317 -14.4093
   -14.3739 -14.3653  -2.7453   3.0825   6.1033   6.1073

          k = 0.0625-0.0625 0.1875 (  2980 PWs)   bands (ev):

   -14.7068 -14.7038 -14.6978 -14.6425 -14.6348 -14.4325 -14.4125 -14.3993
   -14.3905 -14.3800  -3.1033   4.6249   6.5301   6.5614

          k =-0.0625 0.3125 0.0625 (  2960 PWs)   bands (ev):

   -14.7127 -14.7093 -14.6990 -14.6340 -14.6141 -14.4583 -14.4181 -14.3923
   -14.3849 -14.3733  -2.9191   3.8320   6.0644   6.0803

          k =-0.1875 0.4375-0.0625 (  2973 PWs)   bands (ev):

   -14.7255 -14.7206 -14.6869 -14.6184 -14.5913 -14.4830 -14.4344 -14.4030
   -14.3707 -14.3604  -2.5617   2.7382   5.3015   5.8434

          k =-0.3125 0.5625-0.1875 (  2987 PWs)   bands (ev):

   -14.7396 -14.7292 -14.6654 -14.6011 -14.5778 -14.4938 -14.4527 -14.4283
   -14.3579 -14.3462  -2.0059   1.5127   4.7965   5.5469

          k = 0.5625-0.3125 0.6875 (  2987 PWs)   bands (ev):

   -14.7457 -14.7335 -14.6500 -14.5880 -14.5809 -14.4849 -14.4696 -14.4460
   -14.3516 -14.3395  -1.5546   0.7613   4.5364   5.4810

          k = 0.4375-0.1875 0.5625 (  2993 PWs)   bands (ev):

   -14.7424 -14.7337 -14.6537 -14.5988 -14.5797 -14.4842 -14.4572 -14.4469
   -14.3514 -14.3440  -1.8197   1.1822   4.5413   5.6855

          k = 0.3125-0.0625 0.4375 (  2979 PWs)   bands (ev):

   -14.7303 -14.7279 -14.6726 -14.6144 -14.5911 -14.4765 -14.4431 -14.4213
   -14.3617 -14.3546  -2.3978   2.3123   4.8968   6.0687

          k = 0.1875 0.0625 0.3125 (  2963 PWs)   bands (ev):

   -14.7189 -14.7133 -14.6905 -14.6291 -14.6133 -14.4555 -14.4277 -14.4011
   -14.3796 -14.3663  -2.8310   3.4498   5.7427   6.3580

          k =-0.0625 0.5625 0.0625 (  2975 PWs)   bands (ev):

   -14.7273 -14.7247 -14.6907 -14.6036 -14.5616 -14.5192 -14.4466 -14.3927
   -14.3647 -14.3608  -2.2831   2.2037   5.1851   5.2725

          k =-0.1875 0.6875-0.0625 (  2985 PWs)   bands (ev):

   -14.7396 -14.7343 -14.6674 -14.5833 -14.5442 -14.5376 -14.4671 -14.4186
   -14.3519 -14.3461  -1.7742   1.3046   4.6266   5.0136

          k = 0.6875-0.1875 0.8125 (  2992 PWs)   bands (ev):

   -14.7535 -14.7391 -14.6378 -14.5641 -14.5475 -14.5322 -14.4897 -14.4493
   -14.3452 -14.3307  -1.2074   0.5137   4.0558   4.9830

          k = 0.5625-0.0625 0.6875 (  2988 PWs)   bands (ev):

   -14.7560 -14.7402 -14.6296 -14.5688 -14.5512 -14.5158 -14.4970 -14.4586
   -14.3432 -14.3283  -1.2711   0.5949   3.8456   5.2332

          k = 0.4375 0.0625 0.5625 (  2992 PWs)   bands (ev):

   -14.7451 -14.7365 -14.6470 -14.5981 -14.5701 -14.4947 -14.4586 -14.4525
   -14.3475 -14.3417  -1.8474   1.3449   4.2210   5.6623

          k = 0.3125 0.1875 0.4375 (  2976 PWs)   bands (ev):

   -14.7307 -14.7245 -14.6753 -14.6125 -14.5957 -14.4701 -14.4436 -14.4216
   -14.3639 -14.3549  -2.3271   2.0383   5.2563   5.9760

          k =-0.0625 0.8125 0.0625 (  2988 PWs)   bands (ev):

   -14.7395 -14.7370 -14.6609 -14.5825 -14.5608 -14.5028 -14.4885 -14.4239
   -14.3475 -14.3451  -1.3142   0.6558   4.6587   4.7826

          k = 0.8125-0.0625 0.9375 (  2986 PWs)   bands (ev):

   -14.7474 -14.7422 -14.6298 -14.6006 -14.5374 -14.5127 -14.4843 -14.4556
   -14.3411 -14.3359  -0.7011  -0.0556   4.3206   4.6358

          k = 0.6875 0.0625 0.8125 (  2991 PWs)   bands (ev):

   -14.7566 -14.7416 -14.6256 -14.5615 -14.5430 -14.5209 -14.5103 -14.4600
   -14.3416 -14.3269  -0.8327   0.1082   3.8829   4.8718

          k = 0.5625 0.1875 0.6875 (  2990 PWs)   bands (ev):

   -14.7524 -14.7377 -14.6378 -14.5766 -14.5658 -14.5021 -14.4846 -14.4536
   -14.3466 -14.3323  -1.3724   0.6396   4.1009   5.3160

          k = 0.4375 0.3125 0.5625 (  2988 PWs)   bands (ev):

   -14.7372 -14.7299 -14.6632 -14.5997 -14.5915 -14.4696 -14.4566 -14.4385
   -14.3561 -14.3489  -1.7783   0.9792   5.0358   5.7254

          k =-0.0625-0.9375 0.0625 (  2986 PWs)   bands (ev):

   -14.7423 -14.7400 -14.6386 -14.6117 -14.5368 -14.5124 -14.4740 -14.4468
   -14.3434 -14.3410  -0.7190  -0.0575   4.5511   4.6819

          k =-0.1875-0.8125-0.0625 (  2987 PWs)   bands (ev):

   -14.7447 -14.7395 -14.6503 -14.5733 -14.5612 -14.5105 -14.4891 -14.4351
   -14.3451 -14.3395  -1.2677   0.6076   4.4237   4.7627

          k =-0.3125-0.6875-0.1875 (  2992 PWs)   bands (ev):

   -14.7476 -14.7345 -14.6527 -14.5842 -14.5582 -14.5182 -14.4691 -14.4374
   -14.3511 -14.3375  -1.6246   1.0024   4.3766   5.2077

          k =-0.0625-0.6875 0.0625 (  2985 PWs)   bands (ev):

   -14.7342 -14.7320 -14.6784 -14.5835 -14.5513 -14.5323 -14.4663 -14.4053
   -14.3549 -14.3522  -1.8379   1.4134   4.8717   4.9813

          k =-0.1875-0.5625-0.0625 (  2977 PWs)   bands (ev):

   -14.7328 -14.7278 -14.6794 -14.6027 -14.5657 -14.5128 -14.4484 -14.4079
   -14.3606 -14.3536  -2.2078   2.0187   4.9227   5.3802

          k =-0.0625-0.4375 0.0625 (  2967 PWs)   bands (ev):

   -14.7197 -14.7169 -14.6974 -14.6209 -14.5895 -14.4877 -14.4300 -14.3880
   -14.3754 -14.3685  -2.6448   3.0147   5.5892   5.6456

          k =-0.1875 0.1875 0.1875 (  2956 PWs)   bands (ev):

   -14.7130 -14.7130 -14.6908 -14.6283 -14.6283 -14.4322 -14.4322 -14.4090
   -14.3742 -14.3742  -2.9228   3.6782   6.4784   6.4784

          k =-0.3125 0.3125 0.0625 (  2979 PWs)   bands (ev):

   -14.7245 -14.7205 -14.6814 -14.6225 -14.6067 -14.4568 -14.4405 -14.4108
   -14.3719 -14.3600  -2.6562   2.9044   5.3085   6.4465

          k =-0.4375 0.4375-0.0625 (  2983 PWs)   bands (ev):

   -14.7372 -14.7331 -14.6585 -14.6088 -14.5839 -14.4775 -14.4511 -14.4402
   -14.3512 -14.3508  -2.1573   1.8335   4.5186   6.0326

          k = 0.4375-0.4375 0.8125 (  2996 PWs)   bands (ev):

   -14.7478 -14.7355 -14.6448 -14.5900 -14.5758 -14.4823 -14.4756 -14.4523
   -14.3488 -14.3382  -1.5989   0.8816   4.2922   5.6157

          k = 0.3125-0.3125 0.6875 (  2990 PWs)   bands (ev):

   -14.7476 -14.7326 -14.6529 -14.5852 -14.5723 -14.5005 -14.4690 -14.4396
   -14.3531 -14.3375  -1.5846   0.8590   4.4685   5.3814

          k = 0.1875-0.1875 0.5625 (  2980 PWs)   bands (ev):

   -14.7372 -14.7259 -14.6752 -14.6020 -14.5712 -14.5053 -14.4498 -14.4139
   -14.3623 -14.3489  -2.1389   1.8204   4.9508   5.3909

          k =-0.1875 0.4375 0.1875 (  2969 PWs)   bands (ev):

   -14.7286 -14.7198 -14.6837 -14.6160 -14.5941 -14.4774 -14.4372 -14.4089
   -14.3701 -14.3573  -2.4825   2.4536   5.5006   5.7274

          k =-0.3125 0.5625 0.0625 (  2988 PWs)   bands (ev):

   -14.7383 -14.7335 -14.6630 -14.6016 -14.5702 -14.5029 -14.4520 -14.4299
   -14.3528 -14.3481  -2.0604   1.7102   4.5571   5.5497

          k = 0.5625-0.3125 0.9375 (  3002 PWs)   bands (ev):

   -14.7512 -14.7409 -14.6353 -14.5817 -14.5517 -14.5192 -14.4773 -14.4565
   -14.3432 -14.3341  -1.4789   0.8609   4.0303   5.1653

          k = 0.4375-0.1875 0.8125 (  2992 PWs)   bands (ev):

   -14.7547 -14.7418 -14.6286 -14.5681 -14.5478 -14.5259 -14.4909 -14.4595
   -14.3421 -14.3295  -1.1803   0.4719   3.9921   4.9536

          k = 0.3125-0.0625 0.6875 (  2992 PWs)   bands (ev):

   -14.7452 -14.7389 -14.6506 -14.5838 -14.5469 -14.5306 -14.4693 -14.4389
   -14.3461 -14.3403  -1.6514   1.1089   4.3108   5.0722

          k =-0.1875 0.6875 0.1875 (  2989 PWs)   bands (ev):

   -14.7445 -14.7324 -14.6627 -14.5834 -14.5482 -14.5322 -14.4678 -14.4245
   -14.3539 -14.3408  -1.7217   1.1896   4.5094   5.1236

          k = 0.6875-0.1875 1.0625 (  2992 PWs)   bands (ev):

   -14.7501 -14.7438 -14.6341 -14.5629 -14.5587 -14.5217 -14.4908 -14.4524
   -14.3403 -14.3340  -1.1813   0.5143   4.1660   4.7049

          k = 0.5625-0.0625 0.9375 (  3002 PWs)   bands (ev):

   -14.7553 -14.7500 -14.6029 -14.5694 -14.5423 -14.5181 -14.5090 -14.4805
   -14.3334 -14.3283  -0.6549  -0.0533   3.9957   4.3886

          k = 0.4375 0.0625 0.8125 (  3001 PWs)   bands (ev):

   -14.7546 -14.7460 -14.6202 -14.5626 -14.5457 -14.5299 -14.4970 -14.4666
   -14.3378 -14.3294  -1.0679   0.3864   3.9596   4.7073

          k =-0.1875-1.0625 0.1875 (  2982 PWs)   bands (ev):

   -14.7528 -14.7401 -14.6308 -14.5831 -14.5391 -14.5118 -14.5007 -14.4546
   -14.3432 -14.3303  -0.7473   0.0027   4.0479   4.8456

          k =-0.3125-0.9375 0.0625 (  2990 PWs)   bands (ev):

   -14.7523 -14.7466 -14.6154 -14.5835 -14.5394 -14.5142 -14.4992 -14.4692
   -14.3366 -14.3310  -0.6746  -0.0538   4.1121   4.4950

          k =-0.1875-0.8125 0.1875 (  2983 PWs)   bands (ev):

   -14.7499 -14.7374 -14.6465 -14.5621 -14.5618 -14.5204 -14.4892 -14.4393
   -14.3471 -14.3339  -1.2435   0.5699   4.2036   4.9394

          k =-0.3125 0.3125 0.3125 (  2980 PWs)   bands (ev):

   -14.7227 -14.7227 -14.6825 -14.6117 -14.6117 -14.4473 -14.4473 -14.4200
   -14.3640 -14.3640  -2.4186   2.1179   6.0967   6.0967

          k =-0.4375 0.4375 0.1875 (  2984 PWs)   bands (ev):

   -14.7339 -14.7313 -14.6646 -14.6079 -14.5906 -14.4698 -14.4496 -14.4369
   -14.3543 -14.3533  -2.1022   1.5997   4.8933   6.0103

          k = 0.4375-0.4375 1.0625 (  2989 PWs)   bands (ev):

   -14.7517 -14.7377 -14.6368 -14.5865 -14.5638 -14.4947 -14.4835 -14.4557
   -14.3457 -14.3339  -1.5793   0.9659   3.9735   5.5727

          k = 0.3125-0.3125 0.9375 (  2989 PWs)   bands (ev):

   -14.7578 -14.7398 -14.6296 -14.5481 -14.5467 -14.5334 -14.5064 -14.4568
   -14.3436 -14.3260  -1.0473   0.3371   3.7910   5.1554

          k =-0.3125 0.5625 0.3125 (  2985 PWs)   bands (ev):

   -14.7386 -14.7275 -14.6665 -14.6003 -14.5872 -14.4804 -14.4543 -14.4300
   -14.3596 -14.3470  -1.9056   1.2337   5.0483   5.5905

          k = 0.5625-0.3125 1.1875 (  2996 PWs)   bands (ev):

   -14.7497 -14.7374 -14.6418 -14.5843 -14.5648 -14.5048 -14.4736 -14.4516
   -14.3472 -14.3354  -1.4998   0.8020   4.2326   5.2758

          k = 0.4375-0.1875 1.0625 (  2993 PWs)   bands (ev):

   -14.7571 -14.7447 -14.6182 -14.5548 -14.5428 -14.5318 -14.5066 -14.4670
   -14.3388 -14.3266  -0.9452   0.2433   3.8553   4.7845

          k =-0.3125-1.1875 0.3125 (  2986 PWs)   bands (ev):

   -14.7542 -14.7371 -14.6389 -14.5662 -14.5580 -14.5193 -14.4882 -14.4496
   -14.3471 -14.3300  -1.2698   0.5446   4.0295   5.2325

          k =-0.4375 0.4375 0.4375 (  2977 PWs)   bands (ev):

   -14.7268 -14.7268 -14.6765 -14.6029 -14.6029 -14.4539 -14.4539 -14.4279
   -14.3594 -14.3594  -1.8733   1.0148   5.8854   5.8854

          k = 0.4375-0.4375 1.3125 (  2984 PWs)   bands (ev):

   -14.7403 -14.7316 -14.6572 -14.5949 -14.5899 -14.4673 -14.4657 -14.4440
   -14.3537 -14.3457  -1.6517   0.8129   4.8292   5.6935

     highest occupied level (ev):     6.8709

!    total energy              =    -318.48974223 Ry
     Harris-Foulkes estimate   =    -318.48974223 Ry
     estimated scf accuracy    <          2.6E-09 Ry

     The total energy is the sum of the following terms:

     one-electron contribution =    -162.75844421 Ry
     hartree contribution      =      97.81439261 Ry
     xc contribution           =     -85.95641815 Ry
     ewald contribution        =    -167.58927248 Ry

     convergence has been achieved in   7 iterations


     Computing stress (Cartesian axis) and pressure

          total   stress  (Ry/bohr**3)                   (kbar)     P=  -20.30
  -0.00013798   0.00000000   0.00000000        -20.30      0.00      0.00
   0.00000000  -0.00013798   0.00000000          0.00    -20.30      0.00
   0.00000000   0.00000000  -0.00013798          0.00      0.00    -20.30


     Writing output data file sn.a.12.6.8.save

     init_run     :      1.54s CPU      1.60s WALL (       1 calls)
     electrons    :     24.07s CPU     24.96s WALL (       1 calls)
     stress       :      0.98s CPU      1.02s WALL (       1 calls)

     Called by init_run:
     wfcinit      :      1.07s CPU      1.09s WALL (       1 calls)
     potinit      :      0.06s CPU      0.06s WALL (       1 calls)

     Called by electrons:
     c_bands      :     19.67s CPU     20.27s WALL (       7 calls)
     sum_band     :      3.55s CPU      3.77s WALL (       7 calls)
     v_of_rho     :      0.36s CPU      0.38s WALL (       8 calls)
     newd         :      0.52s CPU      0.59s WALL (       8 calls)
     mix_rho      :      0.03s CPU      0.03s WALL (       7 calls)

     Called by c_bands:
     init_us_2    :      0.40s CPU      0.41s WALL (     960 calls)
     cegterg      :     18.95s CPU     19.53s WALL (     420 calls)

     Called by sum_band:
     sum_band:bec :      0.00s CPU      0.00s WALL (     420 calls)
     addusdens    :      0.52s CPU      0.65s WALL (       7 calls)

     Called by *egterg:
     h_psi        :     17.31s CPU     17.89s WALL (    1728 calls)
     s_psi        :      0.25s CPU      0.26s WALL (    1728 calls)
     g_psi        :      0.08s CPU      0.08s WALL (    1248 calls)
     cdiaghg      :      0.73s CPU      0.73s WALL (    1668 calls)

     Called by h_psi:
     h_psi:pot    :     17.19s CPU     17.75s WALL (    1728 calls)
     h_psi:calbec :      0.52s CPU      0.53s WALL (    1728 calls)
     vloc_psi     :     16.33s CPU     16.86s WALL (    1728 calls)
     add_vuspsi   :      0.34s CPU      0.35s WALL (    1728 calls)

     General routines
     calbec       :      0.65s CPU      0.67s WALL (    2208 calls)
     fft          :      0.19s CPU      0.20s WALL (     138 calls)
     ffts         :      0.01s CPU      0.01s WALL (      15 calls)
     fftw         :     15.93s CPU     16.49s WALL (   45606 calls)
     interpolate  :      0.04s CPU      0.04s WALL (      15 calls)
     davcio       :      0.00s CPU      0.01s WALL (      60 calls)

     Parallel routines
     fft_scatter  :      2.09s CPU      2.09s WALL (   45759 calls)

     PWSCF        :    26.72s CPU        27.75s WALL


   This run was terminated on:   1:36:25  23Nov2017            

=------------------------------------------------------------------------------=
   JOB DONE.
=------------------------------------------------------------------------------=
