
     Program PWSCF v.6.1 (svn rev. 13369) starts on 23Nov2017 at  1:47:15 

     This program is part of the open-source Quantum ESPRESSO suite
     for quantum simulation of materials; please cite
         "P. Giannozzi et al., J. Phys.:Condens. Matter 21 395502 (2009);
          URL http://www.quantum-espresso.org", 
     in publications or presentations arising from this work. More details at
     http://www.quantum-espresso.org/quote

     Parallel version (MPI), running on     4 processors
     R & G space division:  proc/nbgrp/npool/nimage =       4
     Waiting for input...
     Reading input from standard input
     Message from routine read_cards :
     DEPRECATED: no units specified in ATOMIC_POSITIONS card
     Message from routine read_cards :
     ATOMIC_POSITIONS: units set to alat

     Current dimensions of program PWSCF are:
     Max number of different atomic species (ntypx) = 10
     Max number of k-points (npk) =  40000
     Max angular momentum in pseudopotentials (lmaxx) =  3

     Subspace diagonalization in iterative solution of the eigenvalue problem:
     a serial algorithm will be used


     Parallelization info
     --------------------
     sticks:   dense  smooth     PW     G-vecs:    dense   smooth      PW
     Min         548     274     87                16882     5993    1027
     Max         550     275     88                16883     5994    1028
     Sum        2197    1099    349                67529    23973    4111



     bravais-lattice index     =            2
     lattice parameter (alat)  =      12.6000  a.u.
     unit-cell volume          =     500.0940 (a.u.)^3
     number of atoms/cell      =            2
     number of atomic types    =            1
     number of electrons       =        28.00
     number of Kohn-Sham states=           14
     kinetic-energy cutoff     =      50.0000  Ry
     charge density cutoff     =     400.0000  Ry
     convergence threshold     =      1.0E-08
     mixing beta               =       0.7000
     number of iterations used =            8  plain     mixing
     Exchange-correlation      =  SLA  PW   PBX  PBC ( 1  4  3  4 0 0)

     celldm(1)=  12.600000  celldm(2)=   0.000000  celldm(3)=   0.000000
     celldm(4)=   0.000000  celldm(5)=   0.000000  celldm(6)=   0.000000

     crystal axes: (cart. coord. in units of alat)
               a(1) = (  -0.500000   0.000000   0.500000 )  
               a(2) = (   0.000000   0.500000   0.500000 )  
               a(3) = (  -0.500000   0.500000   0.000000 )  

     reciprocal axes: (cart. coord. in units 2 pi/alat)
               b(1) = ( -1.000000 -1.000000  1.000000 )  
               b(2) = (  1.000000  1.000000  1.000000 )  
               b(3) = ( -1.000000  1.000000 -1.000000 )  


     PseudoPot. # 1 for Sn read from file:
     /home/s1333534/quantum_espresso/qe-6.1/pseudo/sn_pbe_v1.4.uspp.F.UPF
     MD5 check sum: 469debedee59599fedebd795477fea03
     Pseudo is Ultrasoft + core correction, Zval = 14.0
     Generated by new atomic code, or converted to UPF format
     Using radial grid of  891 points,  6 beta functions with: 
                l(1) =   0
                l(2) =   0
                l(3) =   1
                l(4) =   1
                l(5) =   2
                l(6) =   2
     Q(r) pseudized with  8 coefficients,  rinner =    1.350   1.350   1.350
                                                       1.350   1.350

     atomic species   valence    mass     pseudopotential
        Sn            14.00   118.71000     Sn( 1.00)

     48 Sym. Ops., with inversion, found (24 have fractional translation)



   Cartesian axes

     site n.     atom                  positions (alat units)
         1           Sn  tau(   1) = (   0.0000000   0.0000000   0.0000000  )
         2           Sn  tau(   2) = (   0.2500000   0.2500000   0.2500000  )

     number of k points=   770

     Number of k-points >= 100: set verbosity='high' to print them.

     Dense  grid:    67529 G-vectors     FFT dimensions: (  60,  60,  60)

     Smooth grid:    23973 G-vectors     FFT dimensions: (  45,  45,  45)

     Estimated max dynamical RAM per process >     135.04MB

     Estimated total allocated dynamical RAM >     540.18MB

     Initial potential from superposition of free atoms

     starting charge   25.99991, renormalised to   28.00000
     Starting wfc are   18 randomized atomic wfcs

     total cpu time spent up to now is       14.4 secs

     per-process dynamical memory:   145.9 Mb

     Self-consistent Calculation

     iteration #  1     ecut=    50.00 Ry     beta=0.70
     Davidson diagonalization with overlap
     ethr =  1.00E-02,  avg # of iterations =  2.6

     total cpu time spent up to now is       54.2 secs

     total energy              =    -317.48429386 Ry
     Harris-Foulkes estimate   =    -319.55011973 Ry
     estimated scf accuracy    <       2.51690245 Ry

     iteration #  2     ecut=    50.00 Ry     beta=0.70
     Davidson diagonalization with overlap
     ethr =  8.99E-03,  avg # of iterations =  3.0

     total cpu time spent up to now is       97.9 secs

     total energy              =    -318.39366947 Ry
     Harris-Foulkes estimate   =    -318.71204676 Ry
     estimated scf accuracy    <       0.47387643 Ry

     iteration #  3     ecut=    50.00 Ry     beta=0.70
     Davidson diagonalization with overlap
     ethr =  1.69E-03,  avg # of iterations =  2.0

     total cpu time spent up to now is      136.4 secs

     total energy              =    -318.48883895 Ry
     Harris-Foulkes estimate   =    -318.49040707 Ry
     estimated scf accuracy    <       0.00287543 Ry

     iteration #  4     ecut=    50.00 Ry     beta=0.70
     Davidson diagonalization with overlap
     ethr =  1.03E-05,  avg # of iterations =  2.9

     total cpu time spent up to now is      177.0 secs

     total energy              =    -318.48972330 Ry
     Harris-Foulkes estimate   =    -318.48983979 Ry
     estimated scf accuracy    <       0.00017254 Ry

     iteration #  5     ecut=    50.00 Ry     beta=0.70
     Davidson diagonalization with overlap
     ethr =  6.16E-07,  avg # of iterations =  3.0

     total cpu time spent up to now is      218.5 secs

     total energy              =    -318.48977634 Ry
     Harris-Foulkes estimate   =    -318.48977704 Ry
     estimated scf accuracy    <       0.00000146 Ry

     iteration #  6     ecut=    50.00 Ry     beta=0.70
     Davidson diagonalization with overlap
     ethr =  5.22E-09,  avg # of iterations =  4.0

     total cpu time spent up to now is      262.8 secs

     total energy              =    -318.48977711 Ry
     Harris-Foulkes estimate   =    -318.48977715 Ry
     estimated scf accuracy    <       0.00000007 Ry

     iteration #  7     ecut=    50.00 Ry     beta=0.70
     Davidson diagonalization with overlap
     ethr =  2.57E-10,  avg # of iterations =  3.1

     total cpu time spent up to now is      305.4 secs

     End of self-consistent calculation

     Number of k-points >= 100: set verbosity='high' to print the bands.

     highest occupied level (ev):     6.9310

!    total energy              =    -318.48977714 Ry
     Harris-Foulkes estimate   =    -318.48977714 Ry
     estimated scf accuracy    <          2.5E-09 Ry

     The total energy is the sum of the following terms:

     one-electron contribution =    -162.75810332 Ry
     hartree contribution      =      97.81397535 Ry
     xc contribution           =     -85.95637669 Ry
     ewald contribution        =    -167.58927248 Ry

     convergence has been achieved in   7 iterations


     Computing stress (Cartesian axis) and pressure

          total   stress  (Ry/bohr**3)                   (kbar)     P=  -20.24
  -0.00013757   0.00000000   0.00000000        -20.24      0.00      0.00
   0.00000000  -0.00013757   0.00000000          0.00    -20.24      0.00
   0.00000000   0.00000000  -0.00013757          0.00      0.00    -20.24


     Writing output data file sn.a.12.6.20.save

     init_run     :     14.02s CPU     14.39s WALL (       1 calls)
     electrons    :    284.52s CPU    291.00s WALL (       1 calls)
     stress       :      5.90s CPU      5.95s WALL (       1 calls)

     Called by init_run:
     wfcinit      :     13.50s CPU     13.84s WALL (       1 calls)
     potinit      :      0.05s CPU      0.06s WALL (       1 calls)

     Called by electrons:
     c_bands      :    245.36s CPU    250.79s WALL (       7 calls)
     sum_band     :     38.29s CPU     39.27s WALL (       7 calls)
     v_of_rho     :      0.36s CPU      0.37s WALL (       8 calls)
     newd         :      0.54s CPU      0.62s WALL (       8 calls)
     mix_rho      :      0.03s CPU      0.03s WALL (       7 calls)

     Called by c_bands:
     init_us_2    :      5.14s CPU      5.23s WALL (   12320 calls)
     cegterg      :    236.21s CPU    241.54s WALL (    5390 calls)

     Called by sum_band:
     sum_band:bec :      0.04s CPU      0.06s WALL (    5390 calls)
     addusdens    :      0.54s CPU      0.64s WALL (       7 calls)

     Called by *egterg:
     h_psi        :    217.22s CPU    222.45s WALL (   22026 calls)
     s_psi        :      2.68s CPU      2.72s WALL (   22026 calls)
     g_psi        :      0.99s CPU      1.00s WALL (   15866 calls)
     cdiaghg      :      9.29s CPU      9.34s WALL (   21256 calls)

     Called by h_psi:
     h_psi:pot    :    215.99s CPU    221.21s WALL (   22026 calls)
     h_psi:calbec :      6.21s CPU      6.31s WALL (   22026 calls)
     vloc_psi     :    206.34s CPU    211.36s WALL (   22026 calls)
     add_vuspsi   :      3.42s CPU      3.46s WALL (   22026 calls)

     General routines
     calbec       :      8.03s CPU      8.16s WALL (   28186 calls)
     fft          :      0.18s CPU      0.19s WALL (     138 calls)
     ffts         :      0.01s CPU      0.01s WALL (      15 calls)
     fftw         :    204.14s CPU    209.17s WALL (  584976 calls)
     interpolate  :      0.03s CPU      0.04s WALL (      15 calls)
     davcio       :      0.01s CPU      0.08s WALL (     770 calls)

     Parallel routines
     fft_scatter  :     25.17s CPU     25.64s WALL (  585129 calls)

     PWSCF        :  5m 5.21s CPU     5m12.26s WALL


   This run was terminated on:   1:52:27  23Nov2017            

=------------------------------------------------------------------------------=
   JOB DONE.
=------------------------------------------------------------------------------=
