
     Program PWSCF v.6.1 (svn rev. 13369) starts on 23Nov2017 at  1:38:30 

     This program is part of the open-source Quantum ESPRESSO suite
     for quantum simulation of materials; please cite
         "P. Giannozzi et al., J. Phys.:Condens. Matter 21 395502 (2009);
          URL http://www.quantum-espresso.org", 
     in publications or presentations arising from this work. More details at
     http://www.quantum-espresso.org/quote

     Parallel version (MPI), running on     4 processors
     R & G space division:  proc/nbgrp/npool/nimage =       4
     Waiting for input...
     Reading input from standard input
     Message from routine read_cards :
     DEPRECATED: no units specified in ATOMIC_POSITIONS card
     Message from routine read_cards :
     ATOMIC_POSITIONS: units set to alat

     Current dimensions of program PWSCF are:
     Max number of different atomic species (ntypx) = 10
     Max number of k-points (npk) =  40000
     Max angular momentum in pseudopotentials (lmaxx) =  3

     Subspace diagonalization in iterative solution of the eigenvalue problem:
     a serial algorithm will be used


     Parallelization info
     --------------------
     sticks:   dense  smooth     PW     G-vecs:    dense   smooth      PW
     Min         549     274     84                16882     5993    1003
     Max         550     275     85                16883     5994    1005
     Sum        2197    1099    337                67529    23973    4015



     bravais-lattice index     =            2
     lattice parameter (alat)  =      12.6000  a.u.
     unit-cell volume          =     500.0940 (a.u.)^3
     number of atoms/cell      =            2
     number of atomic types    =            1
     number of electrons       =        28.00
     number of Kohn-Sham states=           14
     kinetic-energy cutoff     =      50.0000  Ry
     charge density cutoff     =     400.0000  Ry
     convergence threshold     =      1.0E-08
     mixing beta               =       0.7000
     number of iterations used =            8  plain     mixing
     Exchange-correlation      =  SLA  PW   PBX  PBC ( 1  4  3  4 0 0)

     celldm(1)=  12.600000  celldm(2)=   0.000000  celldm(3)=   0.000000
     celldm(4)=   0.000000  celldm(5)=   0.000000  celldm(6)=   0.000000

     crystal axes: (cart. coord. in units of alat)
               a(1) = (  -0.500000   0.000000   0.500000 )  
               a(2) = (   0.000000   0.500000   0.500000 )  
               a(3) = (  -0.500000   0.500000   0.000000 )  

     reciprocal axes: (cart. coord. in units 2 pi/alat)
               b(1) = ( -1.000000 -1.000000  1.000000 )  
               b(2) = (  1.000000  1.000000  1.000000 )  
               b(3) = ( -1.000000  1.000000 -1.000000 )  


     PseudoPot. # 1 for Sn read from file:
     /home/s1333534/quantum_espresso/qe-6.1/pseudo/sn_pbe_v1.4.uspp.F.UPF
     MD5 check sum: 469debedee59599fedebd795477fea03
     Pseudo is Ultrasoft + core correction, Zval = 14.0
     Generated by new atomic code, or converted to UPF format
     Using radial grid of  891 points,  6 beta functions with: 
                l(1) =   0
                l(2) =   0
                l(3) =   1
                l(4) =   1
                l(5) =   2
                l(6) =   2
     Q(r) pseudized with  8 coefficients,  rinner =    1.350   1.350   1.350
                                                       1.350   1.350

     atomic species   valence    mass     pseudopotential
        Sn            14.00   118.71000     Sn( 1.00)

     48 Sym. Ops., with inversion, found (24 have fractional translation)



   Cartesian axes

     site n.     atom                  positions (alat units)
         1           Sn  tau(   1) = (   0.0000000   0.0000000   0.0000000  )
         2           Sn  tau(   2) = (   0.2500000   0.2500000   0.2500000  )

     number of k points=   280

     Number of k-points >= 100: set verbosity='high' to print them.

     Dense  grid:    67529 G-vectors     FFT dimensions: (  60,  60,  60)

     Smooth grid:    23973 G-vectors     FFT dimensions: (  45,  45,  45)

     Estimated max dynamical RAM per process >      56.96MB

     Estimated total allocated dynamical RAM >     227.82MB

     Initial potential from superposition of free atoms

     starting charge   25.99991, renormalised to   28.00000
     Starting wfc are   18 randomized atomic wfcs

     total cpu time spent up to now is        5.6 secs

     per-process dynamical memory:    62.8 Mb

     Self-consistent Calculation

     iteration #  1     ecut=    50.00 Ry     beta=0.70
     Davidson diagonalization with overlap
     ethr =  1.00E-02,  avg # of iterations =  2.6

     total cpu time spent up to now is       20.3 secs

     total energy              =    -317.48413432 Ry
     Harris-Foulkes estimate   =    -319.55011887 Ry
     estimated scf accuracy    <       2.51709308 Ry

     iteration #  2     ecut=    50.00 Ry     beta=0.70
     Davidson diagonalization with overlap
     ethr =  8.99E-03,  avg # of iterations =  3.0

     total cpu time spent up to now is       36.3 secs

     total energy              =    -318.39364852 Ry
     Harris-Foulkes estimate   =    -318.71212929 Ry
     estimated scf accuracy    <       0.47403288 Ry

     iteration #  3     ecut=    50.00 Ry     beta=0.70
     Davidson diagonalization with overlap
     ethr =  1.69E-03,  avg # of iterations =  2.0

     total cpu time spent up to now is       50.5 secs

     total energy              =    -318.48883614 Ry
     Harris-Foulkes estimate   =    -318.49040472 Ry
     estimated scf accuracy    <       0.00287619 Ry

     iteration #  4     ecut=    50.00 Ry     beta=0.70
     Davidson diagonalization with overlap
     ethr =  1.03E-05,  avg # of iterations =  2.9

     total cpu time spent up to now is       65.5 secs

     total energy              =    -318.48972001 Ry
     Harris-Foulkes estimate   =    -318.48983692 Ry
     estimated scf accuracy    <       0.00017316 Ry

     iteration #  5     ecut=    50.00 Ry     beta=0.70
     Davidson diagonalization with overlap
     ethr =  6.18E-07,  avg # of iterations =  3.0

     total cpu time spent up to now is       80.8 secs

     total energy              =    -318.48977323 Ry
     Harris-Foulkes estimate   =    -318.48977396 Ry
     estimated scf accuracy    <       0.00000150 Ry

     iteration #  6     ecut=    50.00 Ry     beta=0.70
     Davidson diagonalization with overlap
     ethr =  5.35E-09,  avg # of iterations =  4.0

     total cpu time spent up to now is       97.2 secs

     total energy              =    -318.48977403 Ry
     Harris-Foulkes estimate   =    -318.48977407 Ry
     estimated scf accuracy    <       0.00000007 Ry

     iteration #  7     ecut=    50.00 Ry     beta=0.70
     Davidson diagonalization with overlap
     ethr =  2.53E-10,  avg # of iterations =  3.1

     total cpu time spent up to now is      113.0 secs

     End of self-consistent calculation

     Number of k-points >= 100: set verbosity='high' to print the bands.

     highest occupied level (ev):     6.9186

!    total energy              =    -318.48977406 Ry
     Harris-Foulkes estimate   =    -318.48977406 Ry
     estimated scf accuracy    <          2.6E-09 Ry

     The total energy is the sum of the following terms:

     one-electron contribution =    -162.75810434 Ry
     hartree contribution      =      97.81397883 Ry
     xc contribution           =     -85.95637606 Ry
     ewald contribution        =    -167.58927248 Ry

     convergence has been achieved in   7 iterations


     Computing stress (Cartesian axis) and pressure

          total   stress  (Ry/bohr**3)                   (kbar)     P=  -20.26
  -0.00013774  -0.00000000  -0.00000000        -20.26     -0.00     -0.00
  -0.00000000  -0.00013774   0.00000000         -0.00    -20.26      0.00
  -0.00000000   0.00000000  -0.00013774         -0.00      0.00    -20.26


     Writing output data file sn.a.12.6.14.save

     init_run     :      5.42s CPU      5.56s WALL (       1 calls)
     electrons    :    104.79s CPU    107.38s WALL (       1 calls)
     stress       :      2.50s CPU      2.52s WALL (       1 calls)

     Called by init_run:
     wfcinit      :      4.93s CPU      5.05s WALL (       1 calls)
     potinit      :      0.06s CPU      0.06s WALL (       1 calls)

     Called by electrons:
     c_bands      :     89.52s CPU     91.64s WALL (       7 calls)
     sum_band     :     14.43s CPU     14.83s WALL (       7 calls)
     v_of_rho     :      0.37s CPU      0.38s WALL (       8 calls)
     newd         :      0.52s CPU      0.59s WALL (       8 calls)
     mix_rho      :      0.03s CPU      0.03s WALL (       7 calls)

     Called by c_bands:
     init_us_2    :      1.88s CPU      1.92s WALL (    4480 calls)
     cegterg      :     86.20s CPU     88.26s WALL (    1960 calls)

     Called by sum_band:
     sum_band:bec :      0.02s CPU      0.02s WALL (    1960 calls)
     addusdens    :      0.54s CPU      0.64s WALL (       7 calls)

     Called by *egterg:
     h_psi        :     79.22s CPU     81.25s WALL (    8012 calls)
     s_psi        :      0.99s CPU      1.01s WALL (    8012 calls)
     g_psi        :      0.36s CPU      0.36s WALL (    5772 calls)
     cdiaghg      :      3.40s CPU      3.42s WALL (    7732 calls)

     Called by h_psi:
     h_psi:pot    :     78.76s CPU     80.78s WALL (    8012 calls)
     h_psi:calbec :      2.24s CPU      2.28s WALL (    8012 calls)
     vloc_psi     :     75.29s CPU     77.24s WALL (    8012 calls)
     add_vuspsi   :      1.22s CPU      1.23s WALL (    8012 calls)

     General routines
     calbec       :      2.88s CPU      2.93s WALL (   10252 calls)
     fft          :      0.18s CPU      0.19s WALL (     138 calls)
     ffts         :      0.01s CPU      0.01s WALL (      15 calls)
     fftw         :     73.97s CPU     75.87s WALL (  212724 calls)
     interpolate  :      0.03s CPU      0.04s WALL (      15 calls)
     davcio       :      0.01s CPU      0.03s WALL (     280 calls)

     Parallel routines
     fft_scatter  :      9.04s CPU      9.13s WALL (  212877 calls)

     PWSCF        :  1m53.06s CPU     1m55.90s WALL


   This run was terminated on:   1:40:26  23Nov2017            

=------------------------------------------------------------------------------=
   JOB DONE.
=------------------------------------------------------------------------------=
