
     Program PWSCF v.6.1 (svn rev. 13369) starts on 23Nov2017 at  1:43:20 

     This program is part of the open-source Quantum ESPRESSO suite
     for quantum simulation of materials; please cite
         "P. Giannozzi et al., J. Phys.:Condens. Matter 21 395502 (2009);
          URL http://www.quantum-espresso.org", 
     in publications or presentations arising from this work. More details at
     http://www.quantum-espresso.org/quote

     Parallel version (MPI), running on     4 processors
     R & G space division:  proc/nbgrp/npool/nimage =       4
     Waiting for input...
     Reading input from standard input
     Message from routine read_cards :
     DEPRECATED: no units specified in ATOMIC_POSITIONS card
     Message from routine read_cards :
     ATOMIC_POSITIONS: units set to alat

     Current dimensions of program PWSCF are:
     Max number of different atomic species (ntypx) = 10
     Max number of k-points (npk) =  40000
     Max angular momentum in pseudopotentials (lmaxx) =  3

     Subspace diagonalization in iterative solution of the eigenvalue problem:
     a serial algorithm will be used


     Parallelization info
     --------------------
     sticks:   dense  smooth     PW     G-vecs:    dense   smooth      PW
     Min         549     274     84                16882     5993    1003
     Max         550     275     85                16883     5994    1005
     Sum        2197    1099    337                67529    23973    4015



     bravais-lattice index     =            2
     lattice parameter (alat)  =      12.6000  a.u.
     unit-cell volume          =     500.0940 (a.u.)^3
     number of atoms/cell      =            2
     number of atomic types    =            1
     number of electrons       =        28.00
     number of Kohn-Sham states=           14
     kinetic-energy cutoff     =      50.0000  Ry
     charge density cutoff     =     400.0000  Ry
     convergence threshold     =      1.0E-08
     mixing beta               =       0.7000
     number of iterations used =            8  plain     mixing
     Exchange-correlation      =  SLA  PW   PBX  PBC ( 1  4  3  4 0 0)

     celldm(1)=  12.600000  celldm(2)=   0.000000  celldm(3)=   0.000000
     celldm(4)=   0.000000  celldm(5)=   0.000000  celldm(6)=   0.000000

     crystal axes: (cart. coord. in units of alat)
               a(1) = (  -0.500000   0.000000   0.500000 )  
               a(2) = (   0.000000   0.500000   0.500000 )  
               a(3) = (  -0.500000   0.500000   0.000000 )  

     reciprocal axes: (cart. coord. in units 2 pi/alat)
               b(1) = ( -1.000000 -1.000000  1.000000 )  
               b(2) = (  1.000000  1.000000  1.000000 )  
               b(3) = ( -1.000000  1.000000 -1.000000 )  


     PseudoPot. # 1 for Sn read from file:
     /home/s1333534/quantum_espresso/qe-6.1/pseudo/sn_pbe_v1.4.uspp.F.UPF
     MD5 check sum: 469debedee59599fedebd795477fea03
     Pseudo is Ultrasoft + core correction, Zval = 14.0
     Generated by new atomic code, or converted to UPF format
     Using radial grid of  891 points,  6 beta functions with: 
                l(1) =   0
                l(2) =   0
                l(3) =   1
                l(4) =   1
                l(5) =   2
                l(6) =   2
     Q(r) pseudized with  8 coefficients,  rinner =    1.350   1.350   1.350
                                                       1.350   1.350

     atomic species   valence    mass     pseudopotential
        Sn            14.00   118.71000     Sn( 1.00)

     48 Sym. Ops., with inversion, found (24 have fractional translation)



   Cartesian axes

     site n.     atom                  positions (alat units)
         1           Sn  tau(   1) = (   0.0000000   0.0000000   0.0000000  )
         2           Sn  tau(   2) = (   0.2500000   0.2500000   0.2500000  )

     number of k points=   570

     Number of k-points >= 100: set verbosity='high' to print them.

     Dense  grid:    67529 G-vectors     FFT dimensions: (  60,  60,  60)

     Smooth grid:    23973 G-vectors     FFT dimensions: (  45,  45,  45)

     Estimated max dynamical RAM per process >     103.17MB

     Estimated total allocated dynamical RAM >     412.69MB

     Initial potential from superposition of free atoms

     starting charge   25.99991, renormalised to   28.00000
     Starting wfc are   18 randomized atomic wfcs

     total cpu time spent up to now is       11.0 secs

     per-process dynamical memory:   111.4 Mb

     Self-consistent Calculation

     iteration #  1     ecut=    50.00 Ry     beta=0.70
     Davidson diagonalization with overlap
     ethr =  1.00E-02,  avg # of iterations =  2.6

     total cpu time spent up to now is       40.8 secs

     total energy              =    -317.48412092 Ry
     Harris-Foulkes estimate   =    -319.55011848 Ry
     estimated scf accuracy    <       2.51711084 Ry

     iteration #  2     ecut=    50.00 Ry     beta=0.70
     Davidson diagonalization with overlap
     ethr =  8.99E-03,  avg # of iterations =  3.0

     total cpu time spent up to now is       73.7 secs

     total energy              =    -318.39365617 Ry
     Harris-Foulkes estimate   =    -318.71212385 Ry
     estimated scf accuracy    <       0.47401088 Ry

     iteration #  3     ecut=    50.00 Ry     beta=0.70
     Davidson diagonalization with overlap
     ethr =  1.69E-03,  avg # of iterations =  2.0

     total cpu time spent up to now is      102.5 secs

     total energy              =    -318.48883564 Ry
     Harris-Foulkes estimate   =    -318.49040493 Ry
     estimated scf accuracy    <       0.00287675 Ry

     iteration #  4     ecut=    50.00 Ry     beta=0.70
     Davidson diagonalization with overlap
     ethr =  1.03E-05,  avg # of iterations =  2.9

     total cpu time spent up to now is      133.2 secs

     total energy              =    -318.48972168 Ry
     Harris-Foulkes estimate   =    -318.48983847 Ry
     estimated scf accuracy    <       0.00017297 Ry

     iteration #  5     ecut=    50.00 Ry     beta=0.70
     Davidson diagonalization with overlap
     ethr =  6.18E-07,  avg # of iterations =  3.0

     total cpu time spent up to now is      164.3 secs

     total energy              =    -318.48977484 Ry
     Harris-Foulkes estimate   =    -318.48977556 Ry
     estimated scf accuracy    <       0.00000148 Ry

     iteration #  6     ecut=    50.00 Ry     beta=0.70
     Davidson diagonalization with overlap
     ethr =  5.28E-09,  avg # of iterations =  4.0

     total cpu time spent up to now is      197.5 secs

     total energy              =    -318.48977562 Ry
     Harris-Foulkes estimate   =    -318.48977566 Ry
     estimated scf accuracy    <       0.00000007 Ry

     iteration #  7     ecut=    50.00 Ry     beta=0.70
     Davidson diagonalization with overlap
     ethr =  2.55E-10,  avg # of iterations =  3.1

     total cpu time spent up to now is      229.5 secs

     End of self-consistent calculation

     Number of k-points >= 100: set verbosity='high' to print the bands.

     highest occupied level (ev):     6.9282

!    total energy              =    -318.48977565 Ry
     Harris-Foulkes estimate   =    -318.48977565 Ry
     estimated scf accuracy    <          2.5E-09 Ry

     The total energy is the sum of the following terms:

     one-electron contribution =    -162.75810200 Ry
     hartree contribution      =      97.81397551 Ry
     xc contribution           =     -85.95637667 Ry
     ewald contribution        =    -167.58927248 Ry

     convergence has been achieved in   7 iterations


     Computing stress (Cartesian axis) and pressure

          total   stress  (Ry/bohr**3)                   (kbar)     P=  -20.24
  -0.00013759  -0.00000000  -0.00000000        -20.24     -0.00     -0.00
  -0.00000000  -0.00013759   0.00000000         -0.00    -20.24      0.00
  -0.00000000   0.00000000  -0.00013759         -0.00      0.00    -20.24


     Writing output data file sn.a.12.6.18.save

     init_run     :     10.63s CPU     10.91s WALL (       1 calls)
     electrons    :    213.73s CPU    218.52s WALL (       1 calls)
     stress       :      4.48s CPU      4.52s WALL (       1 calls)

     Called by init_run:
     wfcinit      :     10.12s CPU     10.38s WALL (       1 calls)
     potinit      :      0.06s CPU      0.06s WALL (       1 calls)

     Called by electrons:
     c_bands      :    184.12s CPU    188.17s WALL (       7 calls)
     sum_band     :     28.70s CPU     29.39s WALL (       7 calls)
     v_of_rho     :      0.37s CPU      0.38s WALL (       8 calls)
     newd         :      0.57s CPU      0.64s WALL (       8 calls)
     mix_rho      :      0.03s CPU      0.03s WALL (       7 calls)

     Called by c_bands:
     init_us_2    :      3.66s CPU      3.74s WALL (    9120 calls)
     cegterg      :    177.38s CPU    181.34s WALL (    3990 calls)

     Called by sum_band:
     sum_band:bec :      0.03s CPU      0.05s WALL (    3990 calls)
     addusdens    :      0.54s CPU      0.65s WALL (       7 calls)

     Called by *egterg:
     h_psi        :    163.28s CPU    167.21s WALL (   16311 calls)
     s_psi        :      2.02s CPU      2.04s WALL (   16311 calls)
     g_psi        :      0.73s CPU      0.73s WALL (   11751 calls)
     cdiaghg      :      6.87s CPU      6.92s WALL (   15741 calls)

     Called by h_psi:
     h_psi:pot    :    162.38s CPU    166.29s WALL (   16311 calls)
     h_psi:calbec :      4.61s CPU      4.68s WALL (   16311 calls)
     vloc_psi     :    155.29s CPU    159.05s WALL (   16311 calls)
     add_vuspsi   :      2.47s CPU      2.50s WALL (   16311 calls)

     General routines
     calbec       :      5.90s CPU      5.99s WALL (   20871 calls)
     fft          :      0.21s CPU      0.22s WALL (     138 calls)
     ffts         :      0.01s CPU      0.01s WALL (      15 calls)
     fftw         :    151.45s CPU    155.03s WALL (  432996 calls)
     interpolate  :      0.04s CPU      0.04s WALL (      15 calls)
     davcio       :      0.01s CPU      0.06s WALL (     570 calls)

     Parallel routines
     fft_scatter  :     19.12s CPU     19.39s WALL (  433149 calls)

     PWSCF        :  3m49.43s CPU     3m54.70s WALL


   This run was terminated on:   1:47:15  23Nov2017            

=------------------------------------------------------------------------------=
   JOB DONE.
=------------------------------------------------------------------------------=
