
     Program PWSCF v.6.1 (svn rev. 13369) starts on 23Nov2017 at  1:36:25 

     This program is part of the open-source Quantum ESPRESSO suite
     for quantum simulation of materials; please cite
         "P. Giannozzi et al., J. Phys.:Condens. Matter 21 395502 (2009);
          URL http://www.quantum-espresso.org", 
     in publications or presentations arising from this work. More details at
     http://www.quantum-espresso.org/quote

     Parallel version (MPI), running on     4 processors
     R & G space division:  proc/nbgrp/npool/nimage =       4
     Waiting for input...
     Reading input from standard input
     Message from routine read_cards :
     DEPRECATED: no units specified in ATOMIC_POSITIONS card
     Message from routine read_cards :
     ATOMIC_POSITIONS: units set to alat

     Current dimensions of program PWSCF are:
     Max number of different atomic species (ntypx) = 10
     Max number of k-points (npk) =  40000
     Max angular momentum in pseudopotentials (lmaxx) =  3

     Subspace diagonalization in iterative solution of the eigenvalue problem:
     a serial algorithm will be used


     Parallelization info
     --------------------
     sticks:   dense  smooth     PW     G-vecs:    dense   smooth      PW
     Min         549     274     84                16882     5993    1003
     Max         550     275     85                16883     5994    1005
     Sum        2197    1099    337                67529    23973    4015



     bravais-lattice index     =            2
     lattice parameter (alat)  =      12.6000  a.u.
     unit-cell volume          =     500.0940 (a.u.)^3
     number of atoms/cell      =            2
     number of atomic types    =            1
     number of electrons       =        28.00
     number of Kohn-Sham states=           14
     kinetic-energy cutoff     =      50.0000  Ry
     charge density cutoff     =     400.0000  Ry
     convergence threshold     =      1.0E-08
     mixing beta               =       0.7000
     number of iterations used =            8  plain     mixing
     Exchange-correlation      =  SLA  PW   PBX  PBC ( 1  4  3  4 0 0)

     celldm(1)=  12.600000  celldm(2)=   0.000000  celldm(3)=   0.000000
     celldm(4)=   0.000000  celldm(5)=   0.000000  celldm(6)=   0.000000

     crystal axes: (cart. coord. in units of alat)
               a(1) = (  -0.500000   0.000000   0.500000 )  
               a(2) = (   0.000000   0.500000   0.500000 )  
               a(3) = (  -0.500000   0.500000   0.000000 )  

     reciprocal axes: (cart. coord. in units 2 pi/alat)
               b(1) = ( -1.000000 -1.000000  1.000000 )  
               b(2) = (  1.000000  1.000000  1.000000 )  
               b(3) = ( -1.000000  1.000000 -1.000000 )  


     PseudoPot. # 1 for Sn read from file:
     /home/s1333534/quantum_espresso/qe-6.1/pseudo/sn_pbe_v1.4.uspp.F.UPF
     MD5 check sum: 469debedee59599fedebd795477fea03
     Pseudo is Ultrasoft + core correction, Zval = 14.0
     Generated by new atomic code, or converted to UPF format
     Using radial grid of  891 points,  6 beta functions with: 
                l(1) =   0
                l(2) =   0
                l(3) =   1
                l(4) =   1
                l(5) =   2
                l(6) =   2
     Q(r) pseudized with  8 coefficients,  rinner =    1.350   1.350   1.350
                                                       1.350   1.350

     atomic species   valence    mass     pseudopotential
        Sn            14.00   118.71000     Sn( 1.00)

     48 Sym. Ops., with inversion, found (24 have fractional translation)



   Cartesian axes

     site n.     atom                  positions (alat units)
         1           Sn  tau(   1) = (   0.0000000   0.0000000   0.0000000  )
         2           Sn  tau(   2) = (   0.2500000   0.2500000   0.2500000  )

     number of k points=   110

     Number of k-points >= 100: set verbosity='high' to print them.

     Dense  grid:    67529 G-vectors     FFT dimensions: (  60,  60,  60)

     Smooth grid:    23973 G-vectors     FFT dimensions: (  45,  45,  45)

     Estimated max dynamical RAM per process >      29.86MB

     Estimated total allocated dynamical RAM >     119.46MB

     Initial potential from superposition of free atoms

     starting charge   25.99991, renormalised to   28.00000
     Starting wfc are   18 randomized atomic wfcs

     total cpu time spent up to now is        2.5 secs

     per-process dynamical memory:    34.3 Mb

     Self-consistent Calculation

     iteration #  1     ecut=    50.00 Ry     beta=0.70
     Davidson diagonalization with overlap
     ethr =  1.00E-02,  avg # of iterations =  2.6

     total cpu time spent up to now is        8.4 secs

     total energy              =    -317.48405634 Ry
     Harris-Foulkes estimate   =    -319.55014744 Ry
     estimated scf accuracy    <       2.51722727 Ry

     iteration #  2     ecut=    50.00 Ry     beta=0.70
     Davidson diagonalization with overlap
     ethr =  8.99E-03,  avg # of iterations =  3.0

     total cpu time spent up to now is       14.8 secs

     total energy              =    -318.39365194 Ry
     Harris-Foulkes estimate   =    -318.71211312 Ry
     estimated scf accuracy    <       0.47400909 Ry

     iteration #  3     ecut=    50.00 Ry     beta=0.70
     Davidson diagonalization with overlap
     ethr =  1.69E-03,  avg # of iterations =  2.0

     total cpu time spent up to now is       20.6 secs

     total energy              =    -318.48883441 Ry
     Harris-Foulkes estimate   =    -318.49040487 Ry
     estimated scf accuracy    <       0.00287913 Ry

     iteration #  4     ecut=    50.00 Ry     beta=0.70
     Davidson diagonalization with overlap
     ethr =  1.03E-05,  avg # of iterations =  3.0

     total cpu time spent up to now is       26.7 secs

     total energy              =    -318.48971577 Ry
     Harris-Foulkes estimate   =    -318.48983223 Ry
     estimated scf accuracy    <       0.00017243 Ry

     iteration #  5     ecut=    50.00 Ry     beta=0.70
     Davidson diagonalization with overlap
     ethr =  6.16E-07,  avg # of iterations =  3.0

     total cpu time spent up to now is       32.8 secs

     total energy              =    -318.48976891 Ry
     Harris-Foulkes estimate   =    -318.48976964 Ry
     estimated scf accuracy    <       0.00000151 Ry

     iteration #  6     ecut=    50.00 Ry     beta=0.70
     Davidson diagonalization with overlap
     ethr =  5.38E-09,  avg # of iterations =  3.9

     total cpu time spent up to now is       39.3 secs

     total energy              =    -318.48976968 Ry
     Harris-Foulkes estimate   =    -318.48976972 Ry
     estimated scf accuracy    <       0.00000007 Ry

     iteration #  7     ecut=    50.00 Ry     beta=0.70
     Davidson diagonalization with overlap
     ethr =  2.48E-10,  avg # of iterations =  3.1

     total cpu time spent up to now is       45.6 secs

     End of self-consistent calculation

     Number of k-points >= 100: set verbosity='high' to print the bands.

     highest occupied level (ev):     6.8959

!    total energy              =    -318.48976971 Ry
     Harris-Foulkes estimate   =    -318.48976971 Ry
     estimated scf accuracy    <          2.3E-09 Ry

     The total energy is the sum of the following terms:

     one-electron contribution =    -162.75822791 Ry
     hartree contribution      =      97.81412280 Ry
     xc contribution           =     -85.95639212 Ry
     ewald contribution        =    -167.58927248 Ry

     convergence has been achieved in   7 iterations


     Computing stress (Cartesian axis) and pressure

          total   stress  (Ry/bohr**3)                   (kbar)     P=  -20.23
  -0.00013751   0.00000000   0.00000000        -20.23      0.00      0.00
   0.00000000  -0.00013751  -0.00000000          0.00    -20.23     -0.00
   0.00000000  -0.00000000  -0.00013751          0.00     -0.00    -20.23


     Writing output data file sn.a.12.6.10.save

     init_run     :      2.43s CPU      2.49s WALL (       1 calls)
     electrons    :     41.88s CPU     43.06s WALL (       1 calls)
     stress       :      1.32s CPU      1.35s WALL (       1 calls)

     Called by init_run:
     wfcinit      :      1.93s CPU      1.98s WALL (       1 calls)
     potinit      :      0.07s CPU      0.07s WALL (       1 calls)

     Called by electrons:
     c_bands      :     35.06s CPU     35.93s WALL (       7 calls)
     sum_band     :      5.97s CPU      6.20s WALL (       7 calls)
     v_of_rho     :      0.37s CPU      0.39s WALL (       8 calls)
     newd         :      0.53s CPU      0.59s WALL (       8 calls)
     mix_rho      :      0.03s CPU      0.03s WALL (       7 calls)

     Called by c_bands:
     init_us_2    :      0.74s CPU      0.75s WALL (    1760 calls)
     cegterg      :     33.77s CPU     34.62s WALL (     770 calls)

     Called by sum_band:
     sum_band:bec :      0.01s CPU      0.01s WALL (     770 calls)
     addusdens    :      0.52s CPU      0.64s WALL (       7 calls)

     Called by *egterg:
     h_psi        :     31.08s CPU     31.89s WALL (    3152 calls)
     s_psi        :      0.40s CPU      0.40s WALL (    3152 calls)
     g_psi        :      0.14s CPU      0.14s WALL (    2272 calls)
     cdiaghg      :      1.33s CPU      1.33s WALL (    3042 calls)

     Called by h_psi:
     h_psi:pot    :     30.88s CPU     31.68s WALL (    3152 calls)
     h_psi:calbec :      0.91s CPU      0.94s WALL (    3152 calls)
     vloc_psi     :     29.46s CPU     30.22s WALL (    3152 calls)
     add_vuspsi   :      0.51s CPU      0.51s WALL (    3152 calls)

     General routines
     calbec       :      1.15s CPU      1.18s WALL (    4032 calls)
     fft          :      0.19s CPU      0.21s WALL (     138 calls)
     ffts         :      0.01s CPU      0.01s WALL (      15 calls)
     fftw         :     28.94s CPU     29.72s WALL (   83546 calls)
     interpolate  :      0.03s CPU      0.04s WALL (      15 calls)
     davcio       :      0.00s CPU      0.01s WALL (     110 calls)

     Parallel routines
     fft_scatter  :      3.52s CPU      3.53s WALL (   83699 calls)

     PWSCF        :    45.81s CPU        47.11s WALL


   This run was terminated on:   1:37:12  23Nov2017            

=------------------------------------------------------------------------------=
   JOB DONE.
=------------------------------------------------------------------------------=
