
     Program PWSCF v.6.1 (svn rev. 13369) starts on 12Nov2017 at 12:58:51 

     This program is part of the open-source Quantum ESPRESSO suite
     for quantum simulation of materials; please cite
         "P. Giannozzi et al., J. Phys.:Condens. Matter 21 395502 (2009);
          URL http://www.quantum-espresso.org", 
     in publications or presentations arising from this work. More details at
     http://www.quantum-espresso.org/quote

     Parallel version (MPI), running on     4 processors
     R & G space division:  proc/nbgrp/npool/nimage =       4
     Waiting for input...
     Reading input from standard input
     Message from routine read_cards :
     DEPRECATED: no units specified in ATOMIC_POSITIONS card
     Message from routine read_cards :
     ATOMIC_POSITIONS: units set to alat

     Current dimensions of program PWSCF are:
     Max number of different atomic species (ntypx) = 10
     Max number of k-points (npk) =  40000
     Max angular momentum in pseudopotentials (lmaxx) =  3

     Subspace diagonalization in iterative solution of the eigenvalue problem:
     a serial algorithm will be used


     Parallelization info
     --------------------
     sticks:   dense  smooth     PW     G-vecs:    dense   smooth      PW
     Min         238     118     40                 4892     1712     340
     Max         239     119     41                 4896     1715     342
     Sum         955     475    163                19579     6855    1363



     bravais-lattice index     =            2
     lattice parameter (alat)  =      12.5650  a.u.
     unit-cell volume          =     495.9381 (a.u.)^3
     number of atoms/cell      =            2
     number of atomic types    =            1
     number of electrons       =        28.00
     number of Kohn-Sham states=           14
     kinetic-energy cutoff     =      22.0000  Ry
     charge density cutoff     =     176.0000  Ry
     convergence threshold     =      1.0E-08
     mixing beta               =       0.7000
     number of iterations used =            8  plain     mixing
     Exchange-correlation      =  SLA  PW   PBX  PBC ( 1  4  3  4 0 0)

     celldm(1)=  12.565000  celldm(2)=   0.000000  celldm(3)=   0.000000
     celldm(4)=   0.000000  celldm(5)=   0.000000  celldm(6)=   0.000000

     crystal axes: (cart. coord. in units of alat)
               a(1) = (  -0.500000   0.000000   0.500000 )  
               a(2) = (   0.000000   0.500000   0.500000 )  
               a(3) = (  -0.500000   0.500000   0.000000 )  

     reciprocal axes: (cart. coord. in units 2 pi/alat)
               b(1) = ( -1.000000 -1.000000  1.000000 )  
               b(2) = (  1.000000  1.000000  1.000000 )  
               b(3) = ( -1.000000  1.000000 -1.000000 )  


     PseudoPot. # 1 for Sn read from file:
     /home/s1333534/quantum_espresso/qe-6.1/pseudo/sn_pbe_v1.4.uspp.F.UPF
     MD5 check sum: 469debedee59599fedebd795477fea03
     Pseudo is Ultrasoft + core correction, Zval = 14.0
     Generated by new atomic code, or converted to UPF format
     Using radial grid of  891 points,  6 beta functions with: 
                l(1) =   0
                l(2) =   0
                l(3) =   1
                l(4) =   1
                l(5) =   2
                l(6) =   2
     Q(r) pseudized with  8 coefficients,  rinner =    1.350   1.350   1.350
                                                       1.350   1.350

     atomic species   valence    mass     pseudopotential
        Sn            14.00   118.71000     Sn( 1.00)

     48 Sym. Ops., with inversion, found (24 have fractional translation)



   Cartesian axes

     site n.     atom                  positions (alat units)
         1           Sn  tau(   1) = (   0.0000000   0.0000000   0.0000000  )
         2           Sn  tau(   2) = (   0.2500000   0.2500000   0.2500000  )

     number of k points=    60
                       cart. coord. in units 2pi/alat
        k(    1) = (  -0.0625000   0.0625000   0.0625000), wk =   0.0078125
        k(    2) = (  -0.1875000   0.1875000  -0.0625000), wk =   0.0234375
        k(    3) = (  -0.3125000   0.3125000  -0.1875000), wk =   0.0234375
        k(    4) = (  -0.4375000   0.4375000  -0.3125000), wk =   0.0234375
        k(    5) = (   0.4375000  -0.4375000   0.5625000), wk =   0.0234375
        k(    6) = (   0.3125000  -0.3125000   0.4375000), wk =   0.0234375
        k(    7) = (   0.1875000  -0.1875000   0.3125000), wk =   0.0234375
        k(    8) = (   0.0625000  -0.0625000   0.1875000), wk =   0.0234375
        k(    9) = (  -0.0625000   0.3125000   0.0625000), wk =   0.0234375
        k(   10) = (  -0.1875000   0.4375000  -0.0625000), wk =   0.0468750
        k(   11) = (  -0.3125000   0.5625000  -0.1875000), wk =   0.0468750
        k(   12) = (   0.5625000  -0.3125000   0.6875000), wk =   0.0468750
        k(   13) = (   0.4375000  -0.1875000   0.5625000), wk =   0.0468750
        k(   14) = (   0.3125000  -0.0625000   0.4375000), wk =   0.0468750
        k(   15) = (   0.1875000   0.0625000   0.3125000), wk =   0.0468750
        k(   16) = (  -0.0625000   0.5625000   0.0625000), wk =   0.0234375
        k(   17) = (  -0.1875000   0.6875000  -0.0625000), wk =   0.0468750
        k(   18) = (   0.6875000  -0.1875000   0.8125000), wk =   0.0468750
        k(   19) = (   0.5625000  -0.0625000   0.6875000), wk =   0.0468750
        k(   20) = (   0.4375000   0.0625000   0.5625000), wk =   0.0468750
        k(   21) = (   0.3125000   0.1875000   0.4375000), wk =   0.0468750
        k(   22) = (  -0.0625000   0.8125000   0.0625000), wk =   0.0234375
        k(   23) = (   0.8125000  -0.0625000   0.9375000), wk =   0.0468750
        k(   24) = (   0.6875000   0.0625000   0.8125000), wk =   0.0468750
        k(   25) = (   0.5625000   0.1875000   0.6875000), wk =   0.0468750
        k(   26) = (   0.4375000   0.3125000   0.5625000), wk =   0.0468750
        k(   27) = (  -0.0625000  -0.9375000   0.0625000), wk =   0.0234375
        k(   28) = (  -0.1875000  -0.8125000  -0.0625000), wk =   0.0468750
        k(   29) = (  -0.3125000  -0.6875000  -0.1875000), wk =   0.0468750
        k(   30) = (  -0.0625000  -0.6875000   0.0625000), wk =   0.0234375
        k(   31) = (  -0.1875000  -0.5625000  -0.0625000), wk =   0.0468750
        k(   32) = (  -0.0625000  -0.4375000   0.0625000), wk =   0.0234375
        k(   33) = (  -0.1875000   0.1875000   0.1875000), wk =   0.0078125
        k(   34) = (  -0.3125000   0.3125000   0.0625000), wk =   0.0234375
        k(   35) = (  -0.4375000   0.4375000  -0.0625000), wk =   0.0234375
        k(   36) = (   0.4375000  -0.4375000   0.8125000), wk =   0.0234375
        k(   37) = (   0.3125000  -0.3125000   0.6875000), wk =   0.0234375
        k(   38) = (   0.1875000  -0.1875000   0.5625000), wk =   0.0234375
        k(   39) = (  -0.1875000   0.4375000   0.1875000), wk =   0.0234375
        k(   40) = (  -0.3125000   0.5625000   0.0625000), wk =   0.0468750
        k(   41) = (   0.5625000  -0.3125000   0.9375000), wk =   0.0468750
        k(   42) = (   0.4375000  -0.1875000   0.8125000), wk =   0.0468750
        k(   43) = (   0.3125000  -0.0625000   0.6875000), wk =   0.0468750
        k(   44) = (  -0.1875000   0.6875000   0.1875000), wk =   0.0234375
        k(   45) = (   0.6875000  -0.1875000   1.0625000), wk =   0.0468750
        k(   46) = (   0.5625000  -0.0625000   0.9375000), wk =   0.0468750
        k(   47) = (   0.4375000   0.0625000   0.8125000), wk =   0.0468750
        k(   48) = (  -0.1875000  -1.0625000   0.1875000), wk =   0.0234375
        k(   49) = (  -0.3125000  -0.9375000   0.0625000), wk =   0.0468750
        k(   50) = (  -0.1875000  -0.8125000   0.1875000), wk =   0.0234375
        k(   51) = (  -0.3125000   0.3125000   0.3125000), wk =   0.0078125
        k(   52) = (  -0.4375000   0.4375000   0.1875000), wk =   0.0234375
        k(   53) = (   0.4375000  -0.4375000   1.0625000), wk =   0.0234375
        k(   54) = (   0.3125000  -0.3125000   0.9375000), wk =   0.0234375
        k(   55) = (  -0.3125000   0.5625000   0.3125000), wk =   0.0234375
        k(   56) = (   0.5625000  -0.3125000   1.1875000), wk =   0.0468750
        k(   57) = (   0.4375000  -0.1875000   1.0625000), wk =   0.0468750
        k(   58) = (  -0.3125000  -1.1875000   0.3125000), wk =   0.0234375
        k(   59) = (  -0.4375000   0.4375000   0.4375000), wk =   0.0078125
        k(   60) = (   0.4375000  -0.4375000   1.3125000), wk =   0.0234375

     Dense  grid:    19579 G-vectors     FFT dimensions: (  40,  40,  40)

     Smooth grid:     6855 G-vectors     FFT dimensions: (  27,  27,  27)

     Estimated max dynamical RAM per process >       6.44MB

     Estimated total allocated dynamical RAM >      25.77MB

     Initial potential from superposition of free atoms

     starting charge   25.99991, renormalised to   28.00000
     Starting wfc are   18 randomized atomic wfcs

     total cpu time spent up to now is        0.5 secs

     per-process dynamical memory:    12.2 Mb

     Self-consistent Calculation

     iteration #  1     ecut=    22.00 Ry     beta=0.70
     Davidson diagonalization with overlap
     ethr =  1.00E-02,  avg # of iterations =  2.0

     total cpu time spent up to now is        1.3 secs

     total energy              =    -317.17791929 Ry
     Harris-Foulkes estimate   =    -319.18539884 Ry
     estimated scf accuracy    <       2.46734777 Ry

     iteration #  2     ecut=    22.00 Ry     beta=0.70
     Davidson diagonalization with overlap
     ethr =  8.81E-03,  avg # of iterations =  3.0

     total cpu time spent up to now is        2.2 secs

     total energy              =    -318.06350718 Ry
     Harris-Foulkes estimate   =    -318.39258943 Ry
     estimated scf accuracy    <       0.49163455 Ry

     iteration #  3     ecut=    22.00 Ry     beta=0.70
     Davidson diagonalization with overlap
     ethr =  1.76E-03,  avg # of iterations =  2.0

     total cpu time spent up to now is        3.0 secs

     total energy              =    -318.16143841 Ry
     Harris-Foulkes estimate   =    -318.16322544 Ry
     estimated scf accuracy    <       0.00325880 Ry

     iteration #  4     ecut=    22.00 Ry     beta=0.70
     Davidson diagonalization with overlap
     ethr =  1.16E-05,  avg # of iterations =  3.0

     total cpu time spent up to now is        3.8 secs

     total energy              =    -318.16235279 Ry
     Harris-Foulkes estimate   =    -318.16251582 Ry
     estimated scf accuracy    <       0.00022946 Ry

     iteration #  5     ecut=    22.00 Ry     beta=0.70
     Davidson diagonalization with overlap
     ethr =  8.19E-07,  avg # of iterations =  2.5

     total cpu time spent up to now is        4.6 secs

     total energy              =    -318.16242508 Ry
     Harris-Foulkes estimate   =    -318.16242933 Ry
     estimated scf accuracy    <       0.00000699 Ry

     iteration #  6     ecut=    22.00 Ry     beta=0.70
     Davidson diagonalization with overlap
     ethr =  2.50E-08,  avg # of iterations =  3.2

     total cpu time spent up to now is        5.5 secs

     total energy              =    -318.16242723 Ry
     Harris-Foulkes estimate   =    -318.16242729 Ry
     estimated scf accuracy    <       0.00000011 Ry

     iteration #  7     ecut=    22.00 Ry     beta=0.70
     Davidson diagonalization with overlap
     ethr =  3.75E-10,  avg # of iterations =  3.4

     total cpu time spent up to now is        6.4 secs

     End of self-consistent calculation

          k =-0.0625 0.0625 0.0625 (   881 PWs)   bands (ev):

   -14.2818 -14.2818 -14.2777 -14.2388 -14.2388 -13.9916 -13.9916 -13.9894
   -13.9553 -13.9553  -3.1738   5.3688   6.9604   6.9604

          k =-0.1875 0.1875-0.0625 (   883 PWs)   bands (ev):

   -14.2930 -14.2925 -14.2786 -14.2274 -14.2220 -14.0137 -14.0014 -13.9729
   -13.9579 -13.9513  -2.9886   4.2065   6.2813   6.8218

          k =-0.3125 0.3125-0.1875 (   875 PWs)   bands (ev):

   -14.3113 -14.3023 -14.2590 -14.2090 -14.1925 -14.0286 -14.0118 -13.9869
   -13.9374 -13.9313  -2.5480   2.6436   5.7868   6.3982

          k =-0.4375 0.4375-0.3125 (   865 PWs)   bands (ev):

   -14.3041 -14.3033 -14.2560 -14.1889 -14.1778 -14.0257 -14.0141 -14.0057
   -13.9229 -13.9213  -1.9666   1.3443   5.5399   6.0388

          k = 0.4375-0.4375 0.5625 (   861 PWs)   bands (ev):

   -14.3077 -14.3011 -14.2491 -14.1765 -14.1733 -14.0245 -14.0201 -14.0015
   -13.9294 -13.9177  -1.7094   0.9006   5.5397   5.8651

          k = 0.3125-0.3125 0.4375 (   864 PWs)   bands (ev):

   -14.3078 -14.2930 -14.2625 -14.1914 -14.1795 -14.0283 -14.0101 -13.9971
   -13.9252 -13.9226  -2.1586   1.7192   5.7689   5.9164

          k = 0.1875-0.1875 0.3125 (   871 PWs)   bands (ev):

   -14.2999 -14.2973 -14.2586 -14.2157 -14.1951 -14.0280 -14.0009 -13.9782
   -13.9428 -13.9375  -2.7189   3.1583   6.1860   6.1875

          k = 0.0625-0.0625 0.1875 (   886 PWs)   bands (ev):

   -14.2888 -14.2882 -14.2823 -14.2349 -14.2291 -14.0145 -13.9874 -13.9850
   -13.9600 -13.9535  -3.0805   4.7169   6.6154   6.6477

          k =-0.0625 0.3125 0.0625 (   877 PWs)   bands (ev):

   -14.2974 -14.2951 -14.2794 -14.2278 -14.1916 -14.0401 -13.9799 -13.9677
   -13.9609 -13.9423  -2.8946   3.9172   6.1450   6.1603

          k =-0.1875 0.4375-0.0625 (   867 PWs)   bands (ev):

   -14.3081 -14.2967 -14.2606 -14.2069 -14.1641 -14.0600 -14.0007 -13.9682
   -13.9379 -13.9301  -2.5336   2.8137   5.3751   5.9213

          k =-0.3125 0.5625-0.1875 (   867 PWs)   bands (ev):

   -14.3231 -14.3019 -14.2480 -14.1840 -14.1486 -14.0678 -14.0175 -13.9976
   -13.9254 -13.9153  -1.9718   1.5755   4.8670   5.6208

          k = 0.5625-0.3125 0.6875 (   861 PWs)   bands (ev):

   -14.3230 -14.3083 -14.2288 -14.1656 -14.1554 -14.0510 -14.0321 -14.0150
   -13.9196 -13.9014  -1.5149   0.8155   4.6058   5.5533

          k = 0.4375-0.1875 0.5625 (   865 PWs)   bands (ev):

   -14.3204 -14.3078 -14.2364 -14.1817 -14.1516 -14.0524 -14.0215 -14.0173
   -13.9182 -13.9117  -1.7832   1.2412   4.6094   5.7604

          k = 0.3125-0.0625 0.4375 (   862 PWs)   bands (ev):

   -14.3138 -14.2998 -14.2450 -14.1982 -14.1604 -14.0519 -14.0078 -13.9833
   -13.9277 -13.9222  -2.3677   2.3837   4.9672   6.1488

          k = 0.1875 0.0625 0.3125 (   873 PWs)   bands (ev):

   -14.3042 -14.2915 -14.2638 -14.2196 -14.1966 -14.0333 -13.9958 -13.9692
   -13.9513 -13.9386  -2.8054   3.5304   5.8206   6.4413

          k =-0.0625 0.5625 0.0625 (   856 PWs)   bands (ev):

   -14.2989 -14.2949 -14.2665 -14.1837 -14.1290 -14.0940 -14.0089 -13.9515
   -13.9278 -13.9252  -2.2521   2.2768   5.2558   5.3430

          k =-0.1875 0.6875-0.0625 (   862 PWs)   bands (ev):

   -14.3150 -14.3036 -14.2473 -14.1620 -14.1204 -14.1081 -14.0311 -13.9843
   -13.9221 -13.9118  -1.7381   1.3691   4.6925   5.0812

          k = 0.6875-0.1875 0.8125 (   860 PWs)   bands (ev):

   -14.3316 -14.3097 -14.2175 -14.1371 -14.1257 -14.1006 -14.0518 -14.0166
   -13.9103 -13.8949  -1.1649   0.5700   4.1177   5.0503

          k = 0.5625-0.0625 0.6875 (   864 PWs)   bands (ev):

   -14.3379 -14.3154 -14.2102 -14.1444 -14.1177 -14.0916 -14.0660 -14.0302
   -13.9060 -13.8945  -1.2294   0.6516   3.9053   5.3037

          k = 0.4375 0.0625 0.5625 (   866 PWs)   bands (ev):

   -14.3246 -14.3155 -14.2283 -14.1793 -14.1364 -14.0673 -14.0257 -14.0230
   -13.9124 -13.9114  -1.8117   1.4074   4.2847   5.7373

          k = 0.3125 0.1875 0.4375 (   862 PWs)   bands (ev):

   -14.3099 -14.2962 -14.2509 -14.1974 -14.1674 -14.0415 -14.0110 -13.9872
   -13.9277 -13.9202  -2.2962   2.1052   5.3314   6.0550

          k =-0.0625 0.8125 0.0625 (   859 PWs)   bands (ev):

   -14.3117 -14.3036 -14.2406 -14.1600 -14.1360 -14.0692 -14.0548 -13.9871
   -13.9165 -13.9141  -1.2738   0.7154   4.7227   4.8470

          k = 0.8125-0.0625 0.9375 (   861 PWs)   bands (ev):

   -14.3240 -14.3095 -14.2103 -14.1825 -14.1105 -14.0841 -14.0547 -14.0227
   -13.9045 -13.8984  -0.6547  -0.0032   4.3824   4.6994

          k = 0.6875 0.0625 0.8125 (   860 PWs)   bands (ev):

   -14.3342 -14.3109 -14.2058 -14.1433 -14.1117 -14.0937 -14.0738 -14.0267
   -13.9038 -13.8930  -0.7865   0.1613   3.9422   4.9382

          k = 0.5625 0.1875 0.6875 (   860 PWs)   bands (ev):

   -14.3317 -14.3129 -14.2163 -14.1509 -14.1367 -14.0718 -14.0493 -14.0209
   -13.9103 -13.8939  -1.3311   0.6950   4.1646   5.3870

          k = 0.4375 0.3125 0.5625 (   864 PWs)   bands (ev):

   -14.3149 -14.3047 -14.2434 -14.1794 -14.1645 -14.0385 -14.0199 -14.0122
   -13.9231 -13.9140  -1.7411   1.0340   5.1098   5.8003

          k =-0.0625-0.9375 0.0625 (   858 PWs)   bands (ev):

   -14.3107 -14.3105 -14.2172 -14.1937 -14.1111 -14.0862 -14.0362 -14.0105
   -13.9058 -13.9058  -0.6727  -0.0047   4.6136   4.7453

          k =-0.1875-0.8125-0.0625 (   863 PWs)   bands (ev):

   -14.3178 -14.3112 -14.2314 -14.1527 -14.1372 -14.0819 -14.0570 -14.0015
   -13.9130 -13.9065  -1.2269   0.6660   4.4870   4.8274

          k =-0.3125-0.6875-0.1875 (   866 PWs)   bands (ev):

   -14.3250 -14.3083 -14.2361 -14.1646 -14.1326 -14.0891 -14.0339 -14.0031
   -13.9245 -13.9060  -1.5864   1.0615   4.4425   5.2773

          k =-0.0625-0.6875 0.0625 (   858 PWs)   bands (ev):

   -14.3025 -14.3024 -14.2567 -14.1576 -14.1292 -14.1035 -14.0298 -13.9695
   -13.9201 -13.9169  -1.8027   1.4798   4.9385   5.0481

          k =-0.1875-0.5625-0.0625 (   860 PWs)   bands (ev):

   -14.3067 -14.2979 -14.2528 -14.1871 -14.1355 -14.0873 -14.0148 -13.9724
   -13.9244 -13.9199  -2.1761   2.0891   4.9921   5.4524

          k =-0.0625-0.4375 0.0625 (   865 PWs)   bands (ev):

   -14.2956 -14.2900 -14.2741 -14.2086 -14.1624 -14.0667 -13.9925 -13.9556
   -13.9426 -13.9364  -2.6175   3.0937   5.6644   5.7205

          k =-0.1875 0.1875 0.1875 (   881 PWs)   bands (ev):

   -14.2999 -14.2999 -14.2612 -14.2208 -14.2208 -14.0090 -14.0090 -13.9806
   -13.9500 -13.9500  -2.8983   3.7592   6.5626   6.5626

          k =-0.3125 0.3125 0.0625 (   869 PWs)   bands (ev):

   -14.3108 -14.2973 -14.2521 -14.2125 -14.1833 -14.0331 -14.0086 -13.9766
   -13.9412 -13.9290  -2.6289   2.9800   5.3824   6.5299

          k =-0.4375 0.4375-0.0625 (   865 PWs)   bands (ev):

   -14.3196 -14.3127 -14.2327 -14.1911 -14.1513 -14.0531 -14.0193 -14.0034
   -13.9206 -13.9179  -2.1248   1.9007   4.5853   6.1114

          k = 0.4375-0.4375 0.8125 (   853 PWs)   bands (ev):

   -14.3181 -14.3061 -14.2204 -14.1634 -14.1442 -14.0454 -14.0374 -14.0200
   -13.9100 -13.8998  -1.5597   0.9385   4.3583   5.6901

          k = 0.3125-0.3125 0.6875 (   860 PWs)   bands (ev):

   -14.3255 -14.3018 -14.2320 -14.1635 -14.1463 -14.0658 -14.0283 -14.0039
   -13.9265 -13.9023  -1.5454   0.9151   4.5367   5.4525

          k = 0.1875-0.1875 0.5625 (   863 PWs)   bands (ev):

   -14.3112 -14.3036 -14.2546 -14.1838 -14.1395 -14.0808 -14.0154 -13.9808
   -13.9256 -13.9174  -2.1064   1.8878   5.0222   5.4627

          k =-0.1875 0.4375 0.1875 (   866 PWs)   bands (ev):

   -14.3111 -14.2914 -14.2565 -14.2060 -14.1679 -14.0537 -14.0051 -13.9746
   -13.9356 -13.9257  -2.4534   2.5250   5.5781   5.8029

          k =-0.3125 0.5625 0.0625 (   863 PWs)   bands (ev):

   -14.3140 -14.3060 -14.2411 -14.1836 -14.1382 -14.0774 -14.0163 -13.9965
   -13.9230 -13.9152  -2.0269   1.7767   4.6238   5.6240

          k = 0.5625-0.3125 0.9375 (   861 PWs)   bands (ev):

   -14.3281 -14.3160 -14.2188 -14.1598 -14.1182 -14.0886 -14.0439 -14.0235
   -13.9060 -13.8980  -1.4393   0.9198   4.0922   5.2357

          k = 0.4375-0.1875 0.8125 (   864 PWs)   bands (ev):

   -14.3358 -14.3210 -14.2098 -14.1426 -14.1189 -14.0981 -14.0564 -14.0282
   -13.9097 -13.8928  -1.1375   0.5273   4.0538   5.0214

          k = 0.3125-0.0625 0.6875 (   866 PWs)   bands (ev):

   -14.3224 -14.3152 -14.2341 -14.1659 -14.1188 -14.1057 -14.0388 -14.0042
   -13.9110 -13.9073  -1.6140   1.1705   4.3747   5.1410

          k =-0.1875 0.6875 0.1875 (   867 PWs)   bands (ev):

   -14.3214 -14.3032 -14.2452 -14.1661 -14.1222 -14.1052 -14.0332 -13.9942
   -13.9266 -13.9109  -1.6849   1.2518   4.5753   5.1920

          k = 0.6875-0.1875 1.0625 (   867 PWs)   bands (ev):

   -14.3292 -14.3208 -14.2179 -14.1416 -14.1364 -14.0950 -14.0598 -14.0215
   -13.9067 -13.8989  -1.1396   0.5712   4.2279   4.7700

          k = 0.5625-0.0625 0.9375 (   871 PWs)   bands (ev):

   -14.3349 -14.3288 -14.1879 -14.1505 -14.1194 -14.0942 -14.0770 -14.0503
   -13.9040 -13.8978  -0.6078  -0.0009   4.0555   4.4511

          k = 0.4375 0.0625 0.8125 (   865 PWs)   bands (ev):

   -14.3339 -14.3229 -14.2018 -14.1392 -14.1219 -14.0972 -14.0695 -14.0335
   -13.9042 -13.8943  -1.0245   0.4422   4.0200   4.7731

          k =-0.1875-1.0625 0.1875 (   861 PWs)   bands (ev):

   -14.3281 -14.3103 -14.2129 -14.1648 -14.1078 -14.0782 -14.0735 -14.0244
   -13.9073 -13.8937  -0.7010   0.0553   4.1082   4.9106

          k =-0.3125-0.9375 0.0625 (   869 PWs)   bands (ev):

   -14.3289 -14.3227 -14.1982 -14.1670 -14.1155 -14.0882 -14.0706 -14.0410
   -13.9050 -13.8994  -0.6278  -0.0014   4.1725   4.5582

          k =-0.1875-0.8125 0.1875 (   863 PWs)   bands (ev):

   -14.3261 -14.3062 -14.2279 -14.1412 -14.1373 -14.0933 -14.0526 -14.0085
   -13.9141 -13.9027  -1.2020   0.6271   4.2659   5.0056

          k =-0.3125 0.3125 0.3125 (   863 PWs)   bands (ev):

   -14.3001 -14.3001 -14.2577 -14.1903 -14.1903 -14.0135 -14.0135 -13.9946
   -13.9280 -13.9280  -2.3888   2.1835   6.1769   6.1769

          k =-0.4375 0.4375 0.1875 (   869 PWs)   bands (ev):

   -14.3148 -14.3135 -14.2468 -14.1918 -14.1617 -14.0404 -14.0214 -14.0078
   -13.9238 -13.9170  -2.0691   1.6620   4.9648   6.0888

          k = 0.4375-0.4375 1.0625 (   861 PWs)   bands (ev):

   -14.3302 -14.3161 -14.2185 -14.1622 -14.1286 -14.0636 -14.0502 -14.0225
   -13.9109 -13.8974  -1.5405   1.0251   4.0350   5.6465

          k = 0.3125-0.3125 0.9375 (   862 PWs)   bands (ev):

   -14.3344 -14.3154 -14.2117 -14.1198 -14.1170 -14.1087 -14.0738 -14.0268
   -13.9049 -13.8932  -1.0032   0.3920   3.8501   5.2242

          k =-0.3125 0.5625 0.3125 (   862 PWs)   bands (ev):

   -14.3149 -14.3024 -14.2481 -14.1793 -14.1583 -14.0484 -14.0133 -14.0005
   -13.9280 -13.9134  -1.8699   1.2920   5.1229   5.6642

          k = 0.5625-0.3125 1.1875 (   862 PWs)   bands (ev):

   -14.3296 -14.3140 -14.2226 -14.1622 -14.1362 -14.0739 -14.0372 -14.0194
   -13.9117 -13.8977  -1.4601   0.8587   4.2977   5.3466

          k = 0.4375-0.1875 1.0625 (   865 PWs)   bands (ev):

   -14.3357 -14.3206 -14.2036 -14.1299 -14.1204 -14.0988 -14.0759 -14.0362
   -13.9033 -13.8941  -0.9003   0.2976   3.9146   4.8505

          k =-0.3125-1.1875 0.3125 (   861 PWs)   bands (ev):

   -14.3353 -14.3083 -14.2189 -14.1412 -14.1311 -14.0900 -14.0527 -14.0185
   -13.9127 -13.8912  -1.2277   0.5999   4.0920   5.3019

          k =-0.4375 0.4375 0.4375 (   865 PWs)   bands (ev):

   -14.3047 -14.3047 -14.2565 -14.1835 -14.1835 -14.0205 -14.0205 -14.0052
   -13.9201 -13.9201  -1.8372   1.0689   5.9615   5.9615

          k = 0.4375-0.4375 1.3125 (   862 PWs)   bands (ev):

   -14.3164 -14.3093 -14.2351 -14.1731 -14.1635 -14.0354 -14.0291 -14.0166
   -13.9198 -13.9069  -1.6129   0.8664   4.9014   5.7678

     highest occupied level (ev):     6.9604

!    total energy              =    -318.16242728 Ry
     Harris-Foulkes estimate   =    -318.16242729 Ry
     estimated scf accuracy    <          8.6E-09 Ry

     The total energy is the sum of the following terms:

     one-electron contribution =    -161.71940655 Ry
     hartree contribution      =      97.67494048 Ry
     xc contribution           =     -86.06186622 Ry
     ewald contribution        =    -168.05609499 Ry

     convergence has been achieved in   7 iterations


     Computing stress (Cartesian axis) and pressure

          total   stress  (Ry/bohr**3)                   (kbar)     P= -177.16
  -0.00120432  -0.00000000  -0.00000000       -177.16     -0.00     -0.00
   0.00000000  -0.00120432   0.00000000          0.00   -177.16      0.00
   0.00000000   0.00000000  -0.00120432          0.00      0.00   -177.16


     Writing output data file sn.alpha.22.save

     init_run     :      0.44s CPU      0.46s WALL (       1 calls)
     electrons    :      5.65s CPU      5.92s WALL (       1 calls)
     stress       :      0.29s CPU      0.30s WALL (       1 calls)

     Called by init_run:
     wfcinit      :      0.24s CPU      0.25s WALL (       1 calls)
     potinit      :      0.02s CPU      0.02s WALL (       1 calls)

     Called by electrons:
     c_bands      :      4.58s CPU      4.79s WALL (       7 calls)
     sum_band     :      0.83s CPU      0.86s WALL (       7 calls)
     v_of_rho     :      0.09s CPU      0.10s WALL (       8 calls)
     newd         :      0.16s CPU      0.16s WALL (       8 calls)
     mix_rho      :      0.01s CPU      0.01s WALL (       7 calls)

     Called by c_bands:
     init_us_2    :      0.11s CPU      0.11s WALL (     960 calls)
     cegterg      :      4.37s CPU      4.58s WALL (     420 calls)

     Called by sum_band:
     sum_band:bec :      0.00s CPU      0.00s WALL (     420 calls)
     addusdens    :      0.17s CPU      0.17s WALL (       7 calls)

     Called by *egterg:
     h_psi        :      3.56s CPU      3.73s WALL (    1631 calls)
     s_psi        :      0.08s CPU      0.07s WALL (    1631 calls)
     g_psi        :      0.01s CPU      0.02s WALL (    1151 calls)
     cdiaghg      :      0.62s CPU      0.64s WALL (    1571 calls)

     Called by h_psi:
     h_psi:pot    :      3.55s CPU      3.71s WALL (    1631 calls)
     h_psi:calbec :      0.10s CPU      0.09s WALL (    1631 calls)
     vloc_psi     :      3.38s CPU      3.54s WALL (    1631 calls)
     add_vuspsi   :      0.07s CPU      0.07s WALL (    1631 calls)

     General routines
     calbec       :      0.14s CPU      0.13s WALL (    2111 calls)
     fft          :      0.05s CPU      0.05s WALL (     138 calls)
     ffts         :      0.00s CPU      0.00s WALL (      15 calls)
     fftw         :      3.61s CPU      3.64s WALL (   45262 calls)
     interpolate  :      0.01s CPU      0.01s WALL (      15 calls)
     davcio       :      0.00s CPU      0.00s WALL (      60 calls)

     Parallel routines
     fft_scatter  :      0.54s CPU      0.70s WALL (   45415 calls)

     PWSCF        :     6.53s CPU         7.64s WALL


   This run was terminated on:  12:58:58  12Nov2017            

=------------------------------------------------------------------------------=
   JOB DONE.
=------------------------------------------------------------------------------=
