
     Program PWSCF v.6.1 (svn rev. 13369) starts on 11Nov2017 at 16:11:13 

     This program is part of the open-source Quantum ESPRESSO suite
     for quantum simulation of materials; please cite
         "P. Giannozzi et al., J. Phys.:Condens. Matter 21 395502 (2009);
          URL http://www.quantum-espresso.org", 
     in publications or presentations arising from this work. More details at
     http://www.quantum-espresso.org/quote

     Parallel version (MPI), running on     4 processors
     R & G space division:  proc/nbgrp/npool/nimage =       4
     Waiting for input...
     Reading input from standard input
     Message from routine read_cards :
     DEPRECATED: no units specified in ATOMIC_POSITIONS card
     Message from routine read_cards :
     ATOMIC_POSITIONS: units set to alat

     Current dimensions of program PWSCF are:
     Max number of different atomic species (ntypx) = 10
     Max number of k-points (npk) =  40000
     Max angular momentum in pseudopotentials (lmaxx) =  3

     Subspace diagonalization in iterative solution of the eigenvalue problem:
     a serial algorithm will be used


     Parallelization info
     --------------------
     sticks:   dense  smooth     PW     G-vecs:    dense   smooth      PW
     Min         540     267     78                16488     5821     958
     Max         541     268     79                16490     5825     963
     Sum        2161    1069    313                65955    23289    3839



     bravais-lattice index     =            2
     lattice parameter (alat)  =      12.4900  a.u.
     unit-cell volume          =     487.1103 (a.u.)^3
     number of atoms/cell      =            2
     number of atomic types    =            1
     number of electrons       =        28.00
     number of Kohn-Sham states=           14
     kinetic-energy cutoff     =      50.0000  Ry
     charge density cutoff     =     400.0000  Ry
     convergence threshold     =      1.0E-08
     mixing beta               =       0.7000
     number of iterations used =            8  plain     mixing
     Exchange-correlation      =  SLA  PW   PBX  PBC ( 1  4  3  4 0 0)

     celldm(1)=  12.490000  celldm(2)=   0.000000  celldm(3)=   0.000000
     celldm(4)=   0.000000  celldm(5)=   0.000000  celldm(6)=   0.000000

     crystal axes: (cart. coord. in units of alat)
               a(1) = (  -0.500000   0.000000   0.500000 )  
               a(2) = (   0.000000   0.500000   0.500000 )  
               a(3) = (  -0.500000   0.500000   0.000000 )  

     reciprocal axes: (cart. coord. in units 2 pi/alat)
               b(1) = ( -1.000000 -1.000000  1.000000 )  
               b(2) = (  1.000000  1.000000  1.000000 )  
               b(3) = ( -1.000000  1.000000 -1.000000 )  


     PseudoPot. # 1 for Sn read from file:
     /home/s1333534/quantum_espresso/qe-6.1/pseudo/sn_pbe_v1.4.uspp.F.UPF
     MD5 check sum: 469debedee59599fedebd795477fea03
     Pseudo is Ultrasoft + core correction, Zval = 14.0
     Generated by new atomic code, or converted to UPF format
     Using radial grid of  891 points,  6 beta functions with: 
                l(1) =   0
                l(2) =   0
                l(3) =   1
                l(4) =   1
                l(5) =   2
                l(6) =   2
     Q(r) pseudized with  8 coefficients,  rinner =    1.350   1.350   1.350
                                                       1.350   1.350

     atomic species   valence    mass     pseudopotential
        Sn            14.00   118.71000     Sn( 1.00)

     48 Sym. Ops., with inversion, found (24 have fractional translation)



   Cartesian axes

     site n.     atom                  positions (alat units)
         1           Sn  tau(   1) = (   0.0000000   0.0000000   0.0000000  )
         2           Sn  tau(   2) = (   0.2500000   0.2500000   0.2500000  )

     number of k points=    60
                       cart. coord. in units 2pi/alat
        k(    1) = (  -0.0625000   0.0625000   0.0625000), wk =   0.0078125
        k(    2) = (  -0.1875000   0.1875000  -0.0625000), wk =   0.0234375
        k(    3) = (  -0.3125000   0.3125000  -0.1875000), wk =   0.0234375
        k(    4) = (  -0.4375000   0.4375000  -0.3125000), wk =   0.0234375
        k(    5) = (   0.4375000  -0.4375000   0.5625000), wk =   0.0234375
        k(    6) = (   0.3125000  -0.3125000   0.4375000), wk =   0.0234375
        k(    7) = (   0.1875000  -0.1875000   0.3125000), wk =   0.0234375
        k(    8) = (   0.0625000  -0.0625000   0.1875000), wk =   0.0234375
        k(    9) = (  -0.0625000   0.3125000   0.0625000), wk =   0.0234375
        k(   10) = (  -0.1875000   0.4375000  -0.0625000), wk =   0.0468750
        k(   11) = (  -0.3125000   0.5625000  -0.1875000), wk =   0.0468750
        k(   12) = (   0.5625000  -0.3125000   0.6875000), wk =   0.0468750
        k(   13) = (   0.4375000  -0.1875000   0.5625000), wk =   0.0468750
        k(   14) = (   0.3125000  -0.0625000   0.4375000), wk =   0.0468750
        k(   15) = (   0.1875000   0.0625000   0.3125000), wk =   0.0468750
        k(   16) = (  -0.0625000   0.5625000   0.0625000), wk =   0.0234375
        k(   17) = (  -0.1875000   0.6875000  -0.0625000), wk =   0.0468750
        k(   18) = (   0.6875000  -0.1875000   0.8125000), wk =   0.0468750
        k(   19) = (   0.5625000  -0.0625000   0.6875000), wk =   0.0468750
        k(   20) = (   0.4375000   0.0625000   0.5625000), wk =   0.0468750
        k(   21) = (   0.3125000   0.1875000   0.4375000), wk =   0.0468750
        k(   22) = (  -0.0625000   0.8125000   0.0625000), wk =   0.0234375
        k(   23) = (   0.8125000  -0.0625000   0.9375000), wk =   0.0468750
        k(   24) = (   0.6875000   0.0625000   0.8125000), wk =   0.0468750
        k(   25) = (   0.5625000   0.1875000   0.6875000), wk =   0.0468750
        k(   26) = (   0.4375000   0.3125000   0.5625000), wk =   0.0468750
        k(   27) = (  -0.0625000  -0.9375000   0.0625000), wk =   0.0234375
        k(   28) = (  -0.1875000  -0.8125000  -0.0625000), wk =   0.0468750
        k(   29) = (  -0.3125000  -0.6875000  -0.1875000), wk =   0.0468750
        k(   30) = (  -0.0625000  -0.6875000   0.0625000), wk =   0.0234375
        k(   31) = (  -0.1875000  -0.5625000  -0.0625000), wk =   0.0468750
        k(   32) = (  -0.0625000  -0.4375000   0.0625000), wk =   0.0234375
        k(   33) = (  -0.1875000   0.1875000   0.1875000), wk =   0.0078125
        k(   34) = (  -0.3125000   0.3125000   0.0625000), wk =   0.0234375
        k(   35) = (  -0.4375000   0.4375000  -0.0625000), wk =   0.0234375
        k(   36) = (   0.4375000  -0.4375000   0.8125000), wk =   0.0234375
        k(   37) = (   0.3125000  -0.3125000   0.6875000), wk =   0.0234375
        k(   38) = (   0.1875000  -0.1875000   0.5625000), wk =   0.0234375
        k(   39) = (  -0.1875000   0.4375000   0.1875000), wk =   0.0234375
        k(   40) = (  -0.3125000   0.5625000   0.0625000), wk =   0.0468750
        k(   41) = (   0.5625000  -0.3125000   0.9375000), wk =   0.0468750
        k(   42) = (   0.4375000  -0.1875000   0.8125000), wk =   0.0468750
        k(   43) = (   0.3125000  -0.0625000   0.6875000), wk =   0.0468750
        k(   44) = (  -0.1875000   0.6875000   0.1875000), wk =   0.0234375
        k(   45) = (   0.6875000  -0.1875000   1.0625000), wk =   0.0468750
        k(   46) = (   0.5625000  -0.0625000   0.9375000), wk =   0.0468750
        k(   47) = (   0.4375000   0.0625000   0.8125000), wk =   0.0468750
        k(   48) = (  -0.1875000  -1.0625000   0.1875000), wk =   0.0234375
        k(   49) = (  -0.3125000  -0.9375000   0.0625000), wk =   0.0468750
        k(   50) = (  -0.1875000  -0.8125000   0.1875000), wk =   0.0234375
        k(   51) = (  -0.3125000   0.3125000   0.3125000), wk =   0.0078125
        k(   52) = (  -0.4375000   0.4375000   0.1875000), wk =   0.0234375
        k(   53) = (   0.4375000  -0.4375000   1.0625000), wk =   0.0234375
        k(   54) = (   0.3125000  -0.3125000   0.9375000), wk =   0.0234375
        k(   55) = (  -0.3125000   0.5625000   0.3125000), wk =   0.0234375
        k(   56) = (   0.5625000  -0.3125000   1.1875000), wk =   0.0468750
        k(   57) = (   0.4375000  -0.1875000   1.0625000), wk =   0.0468750
        k(   58) = (  -0.3125000  -1.1875000   0.3125000), wk =   0.0234375
        k(   59) = (  -0.4375000   0.4375000   0.4375000), wk =   0.0078125
        k(   60) = (   0.4375000  -0.4375000   1.3125000), wk =   0.0234375

     Dense  grid:    65955 G-vectors     FFT dimensions: (  60,  60,  60)

     Smooth grid:    23289 G-vectors     FFT dimensions: (  40,  40,  40)

     Estimated max dynamical RAM per process >      21.45MB

     Estimated total allocated dynamical RAM >      85.80MB

     Initial potential from superposition of free atoms

     starting charge   25.99991, renormalised to   28.00000
     Starting wfc are   18 randomized atomic wfcs

     total cpu time spent up to now is        1.3 secs

     per-process dynamical memory:    25.5 Mb

     Self-consistent Calculation

     iteration #  1     ecut=    50.00 Ry     beta=0.70
     Davidson diagonalization with overlap
     ethr =  1.00E-02,  avg # of iterations =  2.7

     total cpu time spent up to now is        3.9 secs

     total energy              =    -317.48699700 Ry
     Harris-Foulkes estimate   =    -319.54509296 Ry
     estimated scf accuracy    <       2.50773597 Ry

     iteration #  2     ecut=    50.00 Ry     beta=0.70
     Davidson diagonalization with overlap
     ethr =  8.96E-03,  avg # of iterations =  3.0

     total cpu time spent up to now is        6.8 secs

     total energy              =    -318.39369973 Ry
     Harris-Foulkes estimate   =    -318.71165085 Ry
     estimated scf accuracy    <       0.47371175 Ry

     iteration #  3     ecut=    50.00 Ry     beta=0.70
     Davidson diagonalization with overlap
     ethr =  1.69E-03,  avg # of iterations =  2.0

     total cpu time spent up to now is        9.2 secs

     total energy              =    -318.48866233 Ry
     Harris-Foulkes estimate   =    -318.49023535 Ry
     estimated scf accuracy    <       0.00288290 Ry

     iteration #  4     ecut=    50.00 Ry     beta=0.70
     Davidson diagonalization with overlap
     ethr =  1.03E-05,  avg # of iterations =  3.0

     total cpu time spent up to now is       11.9 secs

     total energy              =    -318.48955268 Ry
     Harris-Foulkes estimate   =    -318.48967125 Ry
     estimated scf accuracy    <       0.00017586 Ry

     iteration #  5     ecut=    50.00 Ry     beta=0.70
     Davidson diagonalization with overlap
     ethr =  6.28E-07,  avg # of iterations =  3.0

     total cpu time spent up to now is       14.4 secs

     total energy              =    -318.48960663 Ry
     Harris-Foulkes estimate   =    -318.48960736 Ry
     estimated scf accuracy    <       0.00000151 Ry

     iteration #  6     ecut=    50.00 Ry     beta=0.70
     Davidson diagonalization with overlap
     ethr =  5.39E-09,  avg # of iterations =  3.9

     total cpu time spent up to now is       17.4 secs

     total energy              =    -318.48960741 Ry
     Harris-Foulkes estimate   =    -318.48960746 Ry
     estimated scf accuracy    <       0.00000008 Ry

     iteration #  7     ecut=    50.00 Ry     beta=0.70
     Davidson diagonalization with overlap
     ethr =  2.78E-10,  avg # of iterations =  3.0

     total cpu time spent up to now is       20.1 secs

     End of self-consistent calculation

          k =-0.0625 0.0625 0.0625 (  2879 PWs)   bands (ev):

   -14.4310 -14.4310 -14.4276 -14.3738 -14.3738 -14.1207 -14.1207 -14.1116
   -14.0983 -14.0983  -3.0456   5.6994   7.1785   7.1785

          k =-0.1875 0.1875-0.0625 (  2874 PWs)   bands (ev):

   -14.4435 -14.4385 -14.4244 -14.3617 -14.3544 -14.1448 -14.1351 -14.1087
   -14.0929 -14.0795  -2.8567   4.4807   6.4803   7.0383

          k =-0.3125 0.3125-0.1875 (  2894 PWs)   bands (ev):

   -14.4557 -14.4526 -14.4127 -14.3435 -14.3334 -14.1643 -14.1520 -14.1251
   -14.0752 -14.0671  -2.4073   2.8687   5.9809   6.6057

          k =-0.4375 0.4375-0.3125 (  2905 PWs)   bands (ev):

   -14.4616 -14.4614 -14.4016 -14.3300 -14.3224 -14.1717 -14.1620 -14.1416
   -14.0641 -14.0621  -1.8126   1.5349   5.7334   6.2388

          k = 0.4375-0.4375 0.5625 (  2908 PWs)   bands (ev):

   -14.4648 -14.4606 -14.3990 -14.3239 -14.3231 -14.1705 -14.1678 -14.1446
   -14.0637 -14.0596  -1.5479   1.0793   5.7349   6.0612

          k = 0.3125-0.3125 0.4375 (  2909 PWs)   bands (ev):

   -14.4624 -14.4564 -14.4066 -14.3333 -14.3243 -14.1743 -14.1578 -14.1343
   -14.0695 -14.0615  -2.0095   1.9197   5.9692   6.1111

          k = 0.1875-0.1875 0.3125 (  2901 PWs)   bands (ev):

   -14.4526 -14.4474 -14.4186 -14.3499 -14.3384 -14.1644 -14.1420 -14.1188
   -14.0809 -14.0710  -2.5819   3.3979   6.3863   6.3928

          k = 0.0625-0.0625 0.1875 (  2873 PWs)   bands (ev):

   -14.4373 -14.4346 -14.4284 -14.3691 -14.3600 -14.1431 -14.1205 -14.1078
   -14.0977 -14.0863  -2.9504   5.0136   6.8230   6.8595

          k =-0.0625 0.3125 0.0625 (  2891 PWs)   bands (ev):

   -14.4448 -14.4411 -14.4303 -14.3596 -14.3387 -14.1716 -14.1263 -14.1005
   -14.0926 -14.0792  -2.7610   4.1907   6.3432   6.3569

          k =-0.1875 0.4375-0.0625 (  2899 PWs)   bands (ev):

   -14.4583 -14.4530 -14.4170 -14.3430 -14.3139 -14.1981 -14.1442 -14.1114
   -14.0772 -14.0657  -2.3931   3.0563   5.5533   6.1167

          k =-0.3125 0.5625-0.1875 (  2914 PWs)   bands (ev):

   -14.4730 -14.4621 -14.3942 -14.3245 -14.2995 -14.2093 -14.1643 -14.1386
   -14.0634 -14.0506  -1.8193   1.7837   5.0409   5.8088

          k = 0.5625-0.3125 0.6875 (  2914 PWs)   bands (ev):

   -14.4800 -14.4667 -14.3779 -14.3106 -14.3029 -14.1993 -14.1823 -14.1576
   -14.0565 -14.0432  -1.3504   1.0022   4.7764   5.7401

          k = 0.4375-0.1875 0.5625 (  2912 PWs)   bands (ev):

   -14.4760 -14.4670 -14.3811 -14.3223 -14.3015 -14.1984 -14.1689 -14.1590
   -14.0558 -14.0482  -1.6262   1.4403   4.7775   5.9524

          k = 0.3125-0.0625 0.4375 (  2905 PWs)   bands (ev):

   -14.4632 -14.4605 -14.4015 -14.3389 -14.3138 -14.1908 -14.1539 -14.1311
   -14.0679 -14.0595  -2.2239   2.6128   5.1356   6.3499

          k = 0.1875 0.0625 0.3125 (  2893 PWs)   bands (ev):

   -14.4508 -14.4450 -14.4213 -14.3546 -14.3379 -14.1681 -14.1375 -14.1094
   -14.0874 -14.0721  -2.6702   3.7870   6.0086   6.6504

          k =-0.0625 0.5625 0.0625 (  2892 PWs)   bands (ev):

   -14.4601 -14.4572 -14.4218 -14.3269 -14.2819 -14.2373 -14.1566 -14.0995
   -14.0706 -14.0664  -2.1067   2.5131   5.4333   5.5235

          k =-0.1875 0.6875-0.0625 (  2913 PWs)   bands (ev):

   -14.4734 -14.4676 -14.3965 -14.3053 -14.2639 -14.2563 -14.1796 -14.1277
   -14.0567 -14.0503  -1.5823   1.5858   4.8562   5.2562

          k = 0.6875-0.1875 0.8125 (  2913 PWs)   bands (ev):

   -14.4881 -14.4726 -14.3647 -14.2846 -14.2670 -14.2503 -14.2040 -14.1609
   -14.0493 -14.0335  -0.9957   0.7674   4.2670   5.2248

          k = 0.5625-0.0625 0.6875 (  2916 PWs)   bands (ev):

   -14.4908 -14.4739 -14.3557 -14.2898 -14.2709 -14.2329 -14.2122 -14.1710
   -14.0473 -14.0314  -1.0605   0.8499   4.0484   5.4837

          k = 0.4375 0.0625 0.5625 (  2912 PWs)   bands (ev):

   -14.4792 -14.4698 -14.3741 -14.3214 -14.2911 -14.2100 -14.1704 -14.1647
   -14.0518 -14.0455  -1.6560   1.6187   4.4380   5.9281

          k = 0.3125 0.1875 0.4375 (  2904 PWs)   bands (ev):

   -14.4633 -14.4573 -14.4048 -14.3367 -14.3189 -14.1835 -14.1546 -14.1315
   -14.0699 -14.0599  -2.1506   2.3197   5.5159   6.2545

          k =-0.0625 0.8125 0.0625 (  2909 PWs)   bands (ev):

   -14.4730 -14.4707 -14.3898 -14.3057 -14.2806 -14.2179 -14.2026 -14.1331
   -14.0520 -14.0492  -1.1094   0.9194   4.8900   5.0188

          k = 0.8125-0.0625 0.9375 (  2913 PWs)   bands (ev):

   -14.4816 -14.4760 -14.3564 -14.3247 -14.2556 -14.2288 -14.1987 -14.1674
   -14.0451 -14.0394  -0.4771   0.1870   4.5389   4.8664

          k = 0.6875 0.0625 0.8125 (  2911 PWs)   bands (ev):

   -14.4914 -14.4754 -14.3516 -14.2821 -14.2618 -14.2379 -14.2263 -14.1722
   -14.0455 -14.0294  -0.6091   0.3527   4.0851   5.1101

          k = 0.5625 0.1875 0.6875 (  2915 PWs)   bands (ev):

   -14.4872 -14.4710 -14.3645 -14.2982 -14.2866 -14.2181 -14.1986 -14.1657
   -14.0508 -14.0355  -1.1635   0.8870   4.3190   5.5693

          k = 0.4375 0.3125 0.5625 (  2906 PWs)   bands (ev):

   -14.4705 -14.4627 -14.3912 -14.3231 -14.3143 -14.1826 -14.1683 -14.1500
   -14.0613 -14.0533  -1.5816   1.2202   5.2949   5.9940

          k =-0.0625-0.9375 0.0625 (  2918 PWs)   bands (ev):

   -14.4761 -14.4738 -14.3661 -14.3372 -14.2548 -14.2284 -14.1872 -14.1579
   -14.0477 -14.0451  -0.4966   0.1847   4.7790   4.9152

          k =-0.1875-0.8125-0.0625 (  2911 PWs)   bands (ev):

   -14.4786 -14.4730 -14.3783 -14.2955 -14.2813 -14.2267 -14.2033 -14.1455
   -14.0493 -14.0433  -1.0608   0.8695   4.6460   4.9971

          k =-0.3125-0.6875-0.1875 (  2909 PWs)   bands (ev):

   -14.4818 -14.4676 -14.3804 -14.3062 -14.2783 -14.2355 -14.1819 -14.1480
   -14.0558 -14.0409  -1.4260   1.2649   4.6034   5.4570

          k =-0.0625-0.6875 0.0625 (  2900 PWs)   bands (ev):

   -14.4674 -14.4646 -14.4087 -14.3050 -14.2719 -14.2500 -14.1782 -14.1130
   -14.0601 -14.0569  -1.6485   1.6995   5.1097   5.2235

          k =-0.1875-0.5625-0.0625 (  2910 PWs)   bands (ev):

   -14.4661 -14.4606 -14.4095 -14.3263 -14.2866 -14.2302 -14.1592 -14.1163
   -14.0664 -14.0587  -2.0288   2.3185   5.1624   5.6360

          k =-0.0625-0.4375 0.0625 (  2895 PWs)   bands (ev):

   -14.4524 -14.4490 -14.4289 -14.3455 -14.3117 -14.2035 -14.1389 -14.0953
   -14.0825 -14.0744  -2.4788   3.3481   5.8510   5.9081

          k =-0.1875 0.1875 0.1875 (  2893 PWs)   bands (ev):

   -14.4447 -14.4447 -14.4216 -14.3538 -14.3538 -14.1427 -14.1427 -14.1195
   -14.0808 -14.0808  -2.7647   4.0138   6.7712   6.7712

          k =-0.3125 0.3125 0.0625 (  2893 PWs)   bands (ev):

   -14.4565 -14.4524 -14.4111 -14.3474 -14.3307 -14.1692 -14.1516 -14.1195
   -14.0784 -14.0651  -2.4902   3.2212   5.5602   6.7404

          k =-0.4375 0.4375-0.0625 (  2907 PWs)   bands (ev):

   -14.4703 -14.4660 -14.3866 -14.3332 -14.3062 -14.1913 -14.1631 -14.1507
   -14.0566 -14.0553  -1.9757   2.1193   4.7454   6.3117

          k = 0.4375-0.4375 0.8125 (  2912 PWs)   bands (ev):

   -14.4820 -14.4687 -14.3718 -14.3129 -14.2973 -14.1960 -14.1892 -14.1642
   -14.0531 -14.0416  -1.3974   1.1316   4.5191   5.8803

          k = 0.3125-0.3125 0.6875 (  2915 PWs)   bands (ev):

   -14.4817 -14.4655 -14.3806 -14.3074 -14.2938 -14.2166 -14.1820 -14.1503
   -14.0581 -14.0411  -1.3829   1.1084   4.7035   5.6376

          k = 0.1875-0.1875 0.5625 (  2917 PWs)   bands (ev):

   -14.4706 -14.4587 -14.4050 -14.3255 -14.2926 -14.2220 -14.1614 -14.1229
   -14.0683 -14.0536  -1.9573   2.1074   5.1978   5.6463

          k =-0.1875 0.4375 0.1875 (  2903 PWs)   bands (ev):

   -14.4615 -14.4522 -14.4136 -14.3406 -14.3171 -14.1921 -14.1478 -14.1181
   -14.0764 -14.0624  -2.3113   2.7537   5.7697   5.9936

          k =-0.3125 0.5625 0.0625 (  2909 PWs)   bands (ev):

   -14.4717 -14.4668 -14.3914 -14.3249 -14.2913 -14.2193 -14.1629 -14.1403
   -14.0577 -14.0526  -1.8763   1.9967   4.7850   5.8118

          k = 0.5625-0.3125 0.9375 (  2913 PWs)   bands (ev):

   -14.4857 -14.4745 -14.3615 -14.3035 -14.2711 -14.2364 -14.1906 -14.1687
   -14.0468 -14.0371  -1.2758   1.1244   4.2401   5.4125

          k = 0.4375-0.1875 0.8125 (  2912 PWs)   bands (ev):

   -14.4894 -14.4757 -14.3545 -14.2890 -14.2671 -14.2436 -14.2053 -14.1721
   -14.0459 -14.0322  -0.9663   0.7216   4.2028   5.1927

          k = 0.3125-0.0625 0.6875 (  2917 PWs)   bands (ev):

   -14.4794 -14.4727 -14.3781 -14.3057 -14.2662 -14.2491 -14.1821 -14.1499
   -14.0502 -14.0440  -1.4548   1.3817   4.5302   5.3160

          k =-0.1875 0.6875 0.1875 (  2910 PWs)   bands (ev):

   -14.4787 -14.4651 -14.3915 -14.3056 -14.2676 -14.2507 -14.1804 -14.1339
   -14.0590 -14.0443  -1.5274   1.4632   4.7374   5.3707

          k = 0.6875-0.1875 1.0625 (  2911 PWs)   bands (ev):

   -14.4844 -14.4776 -14.3606 -14.2831 -14.2792 -14.2388 -14.2054 -14.1644
   -14.0439 -14.0372  -0.9704   0.7727   4.3793   4.9355

          k = 0.5625-0.0625 0.9375 (  2918 PWs)   bands (ev):

   -14.4900 -14.4844 -14.3265 -14.2907 -14.2609 -14.2350 -14.2251 -14.1945
   -14.0365 -14.0308  -0.4268   0.1900   4.2013   4.6074

          k = 0.4375 0.0625 0.8125 (  2914 PWs)   bands (ev):

   -14.4892 -14.4801 -14.3451 -14.2831 -14.2649 -14.2476 -14.2118 -14.1794
   -14.0411 -14.0322  -0.8520   0.6399   4.1656   4.9374

          k =-0.1875-1.0625 0.1875 (  2905 PWs)   bands (ev):

   -14.4874 -14.4736 -14.3577 -14.3056 -14.2575 -14.2278 -14.2165 -14.1665
   -14.0471 -14.0331  -0.5229   0.2455   4.2558   5.0842

          k =-0.3125-0.9375 0.0625 (  2912 PWs)   bands (ev):

   -14.4869 -14.4808 -14.3406 -14.3059 -14.2577 -14.2306 -14.2147 -14.1825
   -14.0401 -14.0338  -0.4482   0.1892   4.3222   4.7187

          k =-0.1875-0.8125 0.1875 (  2913 PWs)   bands (ev):

   -14.4845 -14.4707 -14.3744 -14.2833 -14.2823 -14.2376 -14.2033 -14.1502
   -14.0515 -14.0373  -1.0347   0.8286   4.4183   5.1808

          k =-0.3125 0.3125 0.3125 (  2914 PWs)   bands (ev):

   -14.4554 -14.4554 -14.4126 -14.3358 -14.3358 -14.1587 -14.1587 -14.1309
   -14.0697 -14.0697  -2.2447   2.3938   6.3775   6.3775

          k =-0.4375 0.4375 0.1875 (  2914 PWs)   bands (ev):

   -14.4669 -14.4642 -14.3931 -14.3323 -14.3136 -14.1828 -14.1615 -14.1481
   -14.0598 -14.0579  -1.9182   1.8670   5.1414   6.2889

          k = 0.4375-0.4375 1.0625 (  2921 PWs)   bands (ev):

   -14.4864 -14.4713 -14.3636 -14.3090 -14.2845 -14.2096 -14.1983 -14.1678
   -14.0501 -14.0372  -1.3787   1.2292   4.1817   5.8357

          k = 0.3125-0.3125 0.9375 (  2912 PWs)   bands (ev):

   -14.4929 -14.4734 -14.3561 -14.2672 -14.2660 -14.2518 -14.2220 -14.1690
   -14.0476 -14.0285  -0.8293   0.5856   3.9908   5.4042

          k =-0.3125 0.5625 0.3125 (  2910 PWs)   bands (ev):

   -14.4721 -14.4602 -14.3949 -14.3237 -14.3098 -14.1947 -14.1659 -14.1405
   -14.0653 -14.0513  -1.7146   1.4872   5.3078   5.8536

          k = 0.5625-0.3125 1.1875 (  2917 PWs)   bands (ev):

   -14.4841 -14.4710 -14.3685 -14.3066 -14.2855 -14.2209 -14.1865 -14.1636
   -14.0514 -14.0387  -1.2958   1.0546   4.4561   5.5269

          k = 0.4375-0.1875 1.0625 (  2913 PWs)   bands (ev):

   -14.4920 -14.4787 -14.3433 -14.2747 -14.2619 -14.2498 -14.2223 -14.1801
   -14.0422 -14.0293  -0.7247   0.4916   4.0570   5.0180

          k =-0.3125-1.1875 0.3125 (  2915 PWs)   bands (ev):

   -14.4891 -14.4706 -14.3661 -14.2868 -14.2782 -14.2367 -14.2026 -14.1612
   -14.0514 -14.0330  -1.0581   0.7930   4.2426   5.4838

          k =-0.4375 0.4375 0.4375 (  2908 PWs)   bands (ev):

   -14.4596 -14.4596 -14.4055 -14.3271 -14.3271 -14.1653 -14.1653 -14.1385
   -14.0653 -14.0653  -1.6791   1.2501   6.1600   6.1600

          k = 0.4375-0.4375 1.3125 (  2908 PWs)   bands (ev):

   -14.4738 -14.4644 -14.3855 -14.3181 -14.3128 -14.1797 -14.1783 -14.1557
   -14.0585 -14.0499  -1.4500   1.0493   5.0811   5.9609

     highest occupied level (ev):     7.1785

!    total energy              =    -318.48960744 Ry
     Harris-Foulkes estimate   =    -318.48960744 Ry
     estimated scf accuracy    <          2.5E-09 Ry

     The total energy is the sum of the following terms:

     one-electron contribution =    -160.34502795 Ry
     hartree contribution      =      96.90150839 Ry
     xc contribution           =     -85.98084902 Ry
     ewald contribution        =    -169.06523886 Ry

     convergence has been achieved in   7 iterations

     Writing output data file sn.alpha.12.49.save

     init_run     :      1.24s CPU      1.28s WALL (       1 calls)
     electrons    :     18.18s CPU     18.78s WALL (       1 calls)

     Called by init_run:
     wfcinit      :      0.77s CPU      0.79s WALL (       1 calls)
     potinit      :      0.05s CPU      0.06s WALL (       1 calls)

     Called by electrons:
     c_bands      :     14.56s CPU     14.91s WALL (       7 calls)
     sum_band     :      2.76s CPU      2.91s WALL (       7 calls)
     v_of_rho     :      0.36s CPU      0.38s WALL (       8 calls)
     newd         :      0.54s CPU      0.60s WALL (       8 calls)
     mix_rho      :      0.03s CPU      0.03s WALL (       7 calls)

     Called by c_bands:
     init_us_2    :      0.37s CPU      0.38s WALL (     900 calls)
     cegterg      :     13.85s CPU     14.18s WALL (     420 calls)

     Called by sum_band:
     sum_band:bec :      0.00s CPU      0.00s WALL (     420 calls)
     addusdens    :      0.54s CPU      0.63s WALL (       7 calls)

     Called by *egterg:
     h_psi        :     11.96s CPU     12.29s WALL (    1720 calls)
     s_psi        :      0.25s CPU      0.25s WALL (    1720 calls)
     g_psi        :      0.08s CPU      0.08s WALL (    1240 calls)
     cdiaghg      :      0.73s CPU      0.73s WALL (    1660 calls)

     Called by h_psi:
     h_psi:pot    :     11.81s CPU     12.14s WALL (    1720 calls)
     h_psi:calbec :      0.52s CPU      0.53s WALL (    1720 calls)
     vloc_psi     :     10.90s CPU     11.20s WALL (    1720 calls)
     add_vuspsi   :      0.39s CPU      0.39s WALL (    1720 calls)

     General routines
     calbec       :      0.64s CPU      0.65s WALL (    2140 calls)
     fft          :      0.17s CPU      0.19s WALL (     124 calls)
     ffts         :      0.01s CPU      0.01s WALL (      15 calls)
     fftw         :      9.78s CPU     10.07s WALL (   45634 calls)
     interpolate  :      0.03s CPU      0.03s WALL (      15 calls)
     davcio       :      0.00s CPU      0.00s WALL (      60 calls)

     Parallel routines
     fft_scatter  :      1.69s CPU      1.66s WALL (   45773 calls)

     PWSCF        :    19.58s CPU        21.26s WALL


   This run was terminated on:  16:11:34  11Nov2017            

=------------------------------------------------------------------------------=
   JOB DONE.
=------------------------------------------------------------------------------=
