
     Program PWSCF v.6.1 (svn rev. 13369) starts on 11Nov2017 at 15:31:25 

     This program is part of the open-source Quantum ESPRESSO suite
     for quantum simulation of materials; please cite
         "P. Giannozzi et al., J. Phys.:Condens. Matter 21 395502 (2009);
          URL http://www.quantum-espresso.org", 
     in publications or presentations arising from this work. More details at
     http://www.quantum-espresso.org/quote

     Parallel version (MPI), running on     4 processors
     R & G space division:  proc/nbgrp/npool/nimage =       4
     Waiting for input...
     Reading input from standard input
     Message from routine read_cards :
     DEPRECATED: no units specified in ATOMIC_POSITIONS card
     Message from routine read_cards :
     ATOMIC_POSITIONS: units set to alat

     Current dimensions of program PWSCF are:
     Max number of different atomic species (ntypx) = 10
     Max number of k-points (npk) =  40000
     Max angular momentum in pseudopotentials (lmaxx) =  3

     Subspace diagonalization in iterative solution of the eigenvalue problem:
     a serial algorithm will be used


     Parallelization info
     --------------------
     sticks:   dense  smooth     PW     G-vecs:    dense   smooth      PW
     Min         453     228     70                12860     4536     779
     Max         454     229     71                12864     4540     780
     Sum        1813     913    283                51445    18149    3119



     bravais-lattice index     =            2
     lattice parameter (alat)  =      11.5000  a.u.
     unit-cell volume          =     380.2188 (a.u.)^3
     number of atoms/cell      =            2
     number of atomic types    =            1
     number of electrons       =        28.00
     number of Kohn-Sham states=           14
     kinetic-energy cutoff     =      50.0000  Ry
     charge density cutoff     =     400.0000  Ry
     convergence threshold     =      1.0E-08
     mixing beta               =       0.7000
     number of iterations used =            8  plain     mixing
     Exchange-correlation      =  SLA  PW   PBX  PBC ( 1  4  3  4 0 0)

     celldm(1)=  11.500000  celldm(2)=   0.000000  celldm(3)=   0.000000
     celldm(4)=   0.000000  celldm(5)=   0.000000  celldm(6)=   0.000000

     crystal axes: (cart. coord. in units of alat)
               a(1) = (  -0.500000   0.000000   0.500000 )  
               a(2) = (   0.000000   0.500000   0.500000 )  
               a(3) = (  -0.500000   0.500000   0.000000 )  

     reciprocal axes: (cart. coord. in units 2 pi/alat)
               b(1) = ( -1.000000 -1.000000  1.000000 )  
               b(2) = (  1.000000  1.000000  1.000000 )  
               b(3) = ( -1.000000  1.000000 -1.000000 )  


     PseudoPot. # 1 for Sn read from file:
     /home/s1333534/quantum_espresso/qe-6.1/pseudo/sn_pbe_v1.4.uspp.F.UPF
     MD5 check sum: 469debedee59599fedebd795477fea03
     Pseudo is Ultrasoft + core correction, Zval = 14.0
     Generated by new atomic code, or converted to UPF format
     Using radial grid of  891 points,  6 beta functions with: 
                l(1) =   0
                l(2) =   0
                l(3) =   1
                l(4) =   1
                l(5) =   2
                l(6) =   2
     Q(r) pseudized with  8 coefficients,  rinner =    1.350   1.350   1.350
                                                       1.350   1.350

     atomic species   valence    mass     pseudopotential
        Sn            14.00   118.71000     Sn( 1.00)

     24 Sym. Ops. (no inversion) found
          (note: 24 additional sym.ops. were found but ignored
           their fractional translations are incommensurate with FFT grid)


   Cartesian axes

     site n.     atom                  positions (alat units)
         1           Sn  tau(   1) = (   0.0000000   0.0000000   0.0000000  )
         2           Sn  tau(   2) = (   0.2500000   0.2500000   0.2500000  )

     number of k points=    60
                       cart. coord. in units 2pi/alat
        k(    1) = (  -0.0625000   0.0625000   0.0625000), wk =   0.0078125
        k(    2) = (  -0.1875000   0.1875000  -0.0625000), wk =   0.0234375
        k(    3) = (  -0.3125000   0.3125000  -0.1875000), wk =   0.0234375
        k(    4) = (  -0.4375000   0.4375000  -0.3125000), wk =   0.0234375
        k(    5) = (   0.4375000  -0.4375000   0.5625000), wk =   0.0234375
        k(    6) = (   0.3125000  -0.3125000   0.4375000), wk =   0.0234375
        k(    7) = (   0.1875000  -0.1875000   0.3125000), wk =   0.0234375
        k(    8) = (   0.0625000  -0.0625000   0.1875000), wk =   0.0234375
        k(    9) = (  -0.0625000   0.3125000   0.0625000), wk =   0.0234375
        k(   10) = (  -0.1875000   0.4375000  -0.0625000), wk =   0.0468750
        k(   11) = (  -0.3125000   0.5625000  -0.1875000), wk =   0.0468750
        k(   12) = (   0.5625000  -0.3125000   0.6875000), wk =   0.0468750
        k(   13) = (   0.4375000  -0.1875000   0.5625000), wk =   0.0468750
        k(   14) = (   0.3125000  -0.0625000   0.4375000), wk =   0.0468750
        k(   15) = (   0.1875000   0.0625000   0.3125000), wk =   0.0468750
        k(   16) = (  -0.0625000   0.5625000   0.0625000), wk =   0.0234375
        k(   17) = (  -0.1875000   0.6875000  -0.0625000), wk =   0.0468750
        k(   18) = (   0.6875000  -0.1875000   0.8125000), wk =   0.0468750
        k(   19) = (   0.5625000  -0.0625000   0.6875000), wk =   0.0468750
        k(   20) = (   0.4375000   0.0625000   0.5625000), wk =   0.0468750
        k(   21) = (   0.3125000   0.1875000   0.4375000), wk =   0.0468750
        k(   22) = (  -0.0625000   0.8125000   0.0625000), wk =   0.0234375
        k(   23) = (   0.8125000  -0.0625000   0.9375000), wk =   0.0468750
        k(   24) = (   0.6875000   0.0625000   0.8125000), wk =   0.0468750
        k(   25) = (   0.5625000   0.1875000   0.6875000), wk =   0.0468750
        k(   26) = (   0.4375000   0.3125000   0.5625000), wk =   0.0468750
        k(   27) = (  -0.0625000  -0.9375000   0.0625000), wk =   0.0234375
        k(   28) = (  -0.1875000  -0.8125000  -0.0625000), wk =   0.0468750
        k(   29) = (  -0.3125000  -0.6875000  -0.1875000), wk =   0.0468750
        k(   30) = (  -0.0625000  -0.6875000   0.0625000), wk =   0.0234375
        k(   31) = (  -0.1875000  -0.5625000  -0.0625000), wk =   0.0468750
        k(   32) = (  -0.0625000  -0.4375000   0.0625000), wk =   0.0234375
        k(   33) = (  -0.1875000   0.1875000   0.1875000), wk =   0.0078125
        k(   34) = (  -0.3125000   0.3125000   0.0625000), wk =   0.0234375
        k(   35) = (  -0.4375000   0.4375000  -0.0625000), wk =   0.0234375
        k(   36) = (   0.4375000  -0.4375000   0.8125000), wk =   0.0234375
        k(   37) = (   0.3125000  -0.3125000   0.6875000), wk =   0.0234375
        k(   38) = (   0.1875000  -0.1875000   0.5625000), wk =   0.0234375
        k(   39) = (  -0.1875000   0.4375000   0.1875000), wk =   0.0234375
        k(   40) = (  -0.3125000   0.5625000   0.0625000), wk =   0.0468750
        k(   41) = (   0.5625000  -0.3125000   0.9375000), wk =   0.0468750
        k(   42) = (   0.4375000  -0.1875000   0.8125000), wk =   0.0468750
        k(   43) = (   0.3125000  -0.0625000   0.6875000), wk =   0.0468750
        k(   44) = (  -0.1875000   0.6875000   0.1875000), wk =   0.0234375
        k(   45) = (   0.6875000  -0.1875000   1.0625000), wk =   0.0468750
        k(   46) = (   0.5625000  -0.0625000   0.9375000), wk =   0.0468750
        k(   47) = (   0.4375000   0.0625000   0.8125000), wk =   0.0468750
        k(   48) = (  -0.1875000  -1.0625000   0.1875000), wk =   0.0234375
        k(   49) = (  -0.3125000  -0.9375000   0.0625000), wk =   0.0468750
        k(   50) = (  -0.1875000  -0.8125000   0.1875000), wk =   0.0234375
        k(   51) = (  -0.3125000   0.3125000   0.3125000), wk =   0.0078125
        k(   52) = (  -0.4375000   0.4375000   0.1875000), wk =   0.0234375
        k(   53) = (   0.4375000  -0.4375000   1.0625000), wk =   0.0234375
        k(   54) = (   0.3125000  -0.3125000   0.9375000), wk =   0.0234375
        k(   55) = (  -0.3125000   0.5625000   0.3125000), wk =   0.0234375
        k(   56) = (   0.5625000  -0.3125000   1.1875000), wk =   0.0468750
        k(   57) = (   0.4375000  -0.1875000   1.0625000), wk =   0.0468750
        k(   58) = (  -0.3125000  -1.1875000   0.3125000), wk =   0.0234375
        k(   59) = (  -0.4375000   0.4375000   0.4375000), wk =   0.0078125
        k(   60) = (   0.4375000  -0.4375000   1.3125000), wk =   0.0234375

     Dense  grid:    51445 G-vectors     FFT dimensions: (  54,  54,  54)

     Smooth grid:    18149 G-vectors     FFT dimensions: (  40,  40,  40)

     Estimated max dynamical RAM per process >      16.66MB

     Estimated total allocated dynamical RAM >      66.65MB

     Initial potential from superposition of free atoms

     starting charge   25.99991, renormalised to   28.00000
     Starting wfc are   18 randomized atomic wfcs

     total cpu time spent up to now is        1.2 secs

     per-process dynamical memory:    21.2 Mb

     Self-consistent Calculation

     iteration #  1     ecut=    50.00 Ry     beta=0.70
     Davidson diagonalization with overlap
     ethr =  1.00E-02,  avg # of iterations =  3.0

     total cpu time spent up to now is        3.3 secs

     total energy              =    -317.46606752 Ry
     Harris-Foulkes estimate   =    -319.44130567 Ry
     estimated scf accuracy    <       2.41026000 Ry

     iteration #  2     ecut=    50.00 Ry     beta=0.70
     Davidson diagonalization with overlap
     ethr =  8.61E-03,  avg # of iterations =  3.0

     total cpu time spent up to now is        5.7 secs

     total energy              =    -318.34053394 Ry
     Harris-Foulkes estimate   =    -318.65157040 Ry
     estimated scf accuracy    <       0.46706653 Ry

     iteration #  3     ecut=    50.00 Ry     beta=0.70
     Davidson diagonalization with overlap
     ethr =  1.67E-03,  avg # of iterations =  2.0

     total cpu time spent up to now is        7.7 secs

     total energy              =    -318.43322422 Ry
     Harris-Foulkes estimate   =    -318.43473872 Ry
     estimated scf accuracy    <       0.00278766 Ry

     iteration #  4     ecut=    50.00 Ry     beta=0.70
     Davidson diagonalization with overlap
     ethr =  9.96E-06,  avg # of iterations =  3.1

     total cpu time spent up to now is        9.9 secs

     total energy              =    -318.43412242 Ry
     Harris-Foulkes estimate   =    -318.43424220 Ry
     estimated scf accuracy    <       0.00017996 Ry

     iteration #  5     ecut=    50.00 Ry     beta=0.70
     Davidson diagonalization with overlap
     ethr =  6.43E-07,  avg # of iterations =  2.8

     total cpu time spent up to now is       12.1 secs

     total energy              =    -318.43417643 Ry
     Harris-Foulkes estimate   =    -318.43417699 Ry
     estimated scf accuracy    <       0.00000133 Ry

     iteration #  6     ecut=    50.00 Ry     beta=0.70
     Davidson diagonalization with overlap
     ethr =  4.76E-09,  avg # of iterations =  3.9

     total cpu time spent up to now is       14.5 secs

     total energy              =    -318.43417711 Ry
     Harris-Foulkes estimate   =    -318.43417720 Ry
     estimated scf accuracy    <       0.00000013 Ry

     iteration #  7     ecut=    50.00 Ry     beta=0.70
     Davidson diagonalization with overlap
     ethr =  4.49E-10,  avg # of iterations =  3.0

     total cpu time spent up to now is       16.7 secs

     End of self-consistent calculation

          k =-0.0625 0.0625 0.0625 (  2241 PWs)   bands (ev):

   -11.6528 -11.6528 -11.6454 -11.5490 -11.5490 -11.0575 -11.0575 -11.0507
   -10.9986 -10.9986  -1.4272   9.8074  10.5724  10.5724

          k =-0.1875 0.1875-0.0625 (  2259 PWs)   bands (ev):

   -11.6793 -11.6664 -11.6415 -11.5255 -11.5100 -11.1005 -11.0850 -11.0360
   -10.9980 -10.9669  -1.1827   8.1003   9.5719  10.3896

          k =-0.3125 0.3125-0.1875 (  2264 PWs)   bands (ev):

   -11.7011 -11.6924 -11.6216 -11.4894 -11.4671 -11.1336 -11.1125 -11.0670
   -10.9682 -10.9457  -0.5923   5.8861   8.9780   9.7872

          k =-0.4375 0.4375-0.3125 (  2273 PWs)   bands (ev):

   -11.7094 -11.7093 -11.6024 -11.4646 -11.4480 -11.1429 -11.1233 -11.1043
   -10.9464 -10.9394   0.2242   4.0754   8.6996   9.2872

          k = 0.4375-0.4375 0.5625 (  2284 PWs)   bands (ev):

   -11.7162 -11.7076 -11.5979 -11.4521 -11.4508 -11.1402 -11.1317 -11.1119
   -10.9447 -10.9359   0.6176   3.4282   8.7306   9.0398

          k = 0.3125-0.3125 0.4375 (  2263 PWs)   bands (ev):

   -11.7119 -11.6991 -11.6109 -11.4696 -11.4509 -11.1540 -11.1117 -11.0888
   -10.9568 -10.9374  -0.0532   4.6035   9.0484   9.0929

          k = 0.1875-0.1875 0.3125 (  2257 PWs)   bands (ev):

   -11.6952 -11.6827 -11.6317 -11.5013 -11.4768 -11.1399 -11.0846 -11.0595
   -10.9770 -10.9527  -0.8237   6.6026   9.4480   9.5934

          k = 0.0625-0.0625 0.1875 (  2256 PWs)   bands (ev):

   -11.6669 -11.6592 -11.6483 -11.5400 -11.5209 -11.1015 -11.0500 -11.0413
   -11.0054 -10.9775  -1.3044   8.8859  10.0389  10.1661

          k =-0.0625 0.3125 0.0625 (  2255 PWs)   bands (ev):

   -11.6805 -11.6700 -11.6544 -11.5207 -11.4771 -11.1595 -11.0491 -11.0237
   -11.0059 -10.9648  -1.0595   7.8759   9.3897   9.4277

          k =-0.1875 0.4375-0.0625 (  2267 PWs)   bands (ev):

   -11.7060 -11.6924 -11.6316 -11.4874 -11.4279 -11.2121 -11.0847 -11.0366
   -10.9767 -10.9428  -0.5801   6.3589   8.3223   9.1313

          k =-0.3125 0.5625-0.1875 (  2276 PWs)   bands (ev):

   -11.7331 -11.7098 -11.5893 -11.4516 -11.4008 -11.2312 -11.1227 -11.0901
   -10.9450 -10.9160   0.1894   4.5875   7.7589   8.6848

          k = 0.5625-0.3125 0.6875 (  2276 PWs)   bands (ev):

   -11.7452 -11.7189 -11.5590 -11.4256 -11.4087 -11.2081 -11.1614 -11.1254
   -10.9290 -10.9033   0.8647   3.4716   7.4532   8.5791

          k = 0.4375-0.1875 0.5625 (  2272 PWs)   bands (ev):

   -11.7376 -11.7202 -11.5637 -11.4491 -11.4041 -11.2042 -11.1373 -11.1298
   -10.9274 -10.9133   0.4615   4.1035   7.4044   8.8824

          k = 0.3125-0.0625 0.4375 (  2266 PWs)   bands (ev):

   -11.7152 -11.7080 -11.6010 -11.4804 -11.4267 -11.1931 -11.1139 -11.0696
   -10.9569 -10.9300  -0.3541   5.7337   7.7653   9.4477

          k = 0.1875 0.0625 0.3125 (  2260 PWs)   bands (ev):

   -11.6929 -11.6780 -11.6369 -11.5107 -11.4752 -11.1502 -11.0809 -11.0310
   -10.9954 -10.9527  -0.9405   7.2333   8.9314   9.8823

          k =-0.0625 0.5625 0.0625 (  2267 PWs)   bands (ev):

   -11.7064 -11.6996 -11.6459 -11.4539 -11.3647 -11.2933 -11.1070 -11.0072
   -10.9632 -10.9506  -0.2119   5.7862   8.1546   8.2713

          k =-0.1875 0.6875-0.0625 (  2274 PWs)   bands (ev):

   -11.7317 -11.7194 -11.5983 -11.4105 -11.3448 -11.3145 -11.1534 -11.0627
   -10.9322 -10.9173   0.4779   4.5723   7.3730   7.9095

          k = 0.6875-0.1875 0.8125 (  2274 PWs)   bands (ev):

   -11.7609 -11.7292 -11.5379 -11.3703 -11.3455 -11.3051 -11.2047 -11.1278
   -10.9153 -10.8830   1.2877   3.4504   6.5892   7.8683

          k = 0.5625-0.0625 0.6875 (  2276 PWs)   bands (ev):

   -11.7659 -11.7331 -11.5192 -11.3837 -11.3407 -11.2769 -11.2272 -11.1457
   -10.9089 -10.8794   1.2150   3.5457   6.2730   8.2272

          k = 0.4375 0.0625 0.5625 (  2271 PWs)   bands (ev):

   -11.7430 -11.7269 -11.5500 -11.4471 -11.3813 -11.2293 -11.1513 -11.1310
   -10.9169 -10.9096   0.4055   4.4910   6.8282   8.8456

          k = 0.3125 0.1875 0.4375 (  2267 PWs)   bands (ev):

   -11.7153 -11.7010 -11.6074 -11.4764 -11.4385 -11.1771 -11.1096 -11.0768
   -10.9589 -10.9328  -0.2515   5.2088   8.3863   9.3227

          k =-0.0625 0.8125 0.0625 (  2273 PWs)   bands (ev):

   -11.7286 -11.7230 -11.5899 -11.4292 -11.3593 -11.2392 -11.1998 -11.0710
   -10.9224 -10.9168   1.0859   3.7325   7.4172   7.6027

          k = 0.8125-0.0625 0.9375 (  2266 PWs)   bands (ev):

   -11.7461 -11.7341 -11.5253 -11.4639 -11.3087 -11.2542 -11.2008 -11.1392
   -10.9072 -10.8954   1.9254   2.7839   6.9212   7.3857

          k = 0.6875 0.0625 0.8125 (  2272 PWs)   bands (ev):

   -11.7672 -11.7345 -11.5147 -11.3764 -11.3227 -11.2797 -11.2513 -11.1487
   -10.9070 -10.8748   1.8051   2.9586   6.2889   7.7162

          k = 0.5625 0.1875 0.6875 (  2270 PWs)   bands (ev):

   -11.7587 -11.7275 -11.5347 -11.4010 -11.3742 -11.2473 -11.1965 -11.1371
   -10.9166 -10.8876   1.1005   3.4558   6.7430   8.3429

          k = 0.4375 0.3125 0.5625 (  2277 PWs)   bands (ev):

   -11.7273 -11.7115 -11.5834 -11.4510 -11.4323 -11.1696 -11.1316 -11.1180
   -10.9396 -10.9234   0.5487   3.6837   8.1645   8.9440

          k =-0.0625-0.9375 0.0625 (  2271 PWs)   bands (ev):

   -11.7337 -11.7283 -11.5458 -11.4904 -11.3062 -11.2525 -11.1781 -11.1201
   -10.9129 -10.9077   1.8858   2.7745   7.2684   7.4657

          k =-0.1875-0.8125-0.0625 (  2275 PWs)   bands (ev):

   -11.7412 -11.7289 -11.5659 -11.4078 -11.3613 -11.2561 -11.2019 -11.0965
   -10.9162 -10.9034   1.1602   3.6661   7.0754   7.5579

          k =-0.3125-0.6875-0.1875 (  2276 PWs)   bands (ev):

   -11.7492 -11.7200 -11.5657 -11.4145 -11.3601 -11.2836 -11.1589 -11.1053
   -10.9292 -10.8977   0.7137   4.0086   7.1219   8.1845

          k =-0.0625-0.6875 0.0625 (  2273 PWs)   bands (ev):

   -11.7191 -11.7131 -11.6239 -11.4091 -11.3625 -11.3025 -11.1507 -11.0315
   -10.9401 -10.9326   0.3837   4.7438   7.7137   7.8736

          k =-0.1875-0.5625-0.0625 (  2276 PWs)   bands (ev):

   -11.7193 -11.7068 -11.6199 -11.4533 -11.3737 -11.2779 -11.1121 -11.0437
   -10.9534 -10.9321  -0.1053   5.4737   7.7952   8.4431

          k =-0.0625-0.4375 0.0625 (  2259 PWs)   bands (ev):

   -11.6930 -11.6843 -11.6556 -11.4919 -11.4236 -11.2246 -11.0714 -11.0064
   -10.9879 -10.9602  -0.6944   6.8368   8.7328   8.7839

          k =-0.1875 0.1875 0.1875 (  2253 PWs)   bands (ev):

   -11.6795 -11.6795 -11.6358 -11.5085 -11.5085 -11.0924 -11.0924 -11.0655
   -10.9717 -10.9717  -1.0626   7.3896   9.9913   9.9913

          k =-0.3125 0.3125 0.0625 (  2257 PWs)   bands (ev):

   -11.7042 -11.6921 -11.6179 -11.4971 -11.4600 -11.1461 -11.1180 -11.0445
   -10.9794 -10.9399  -0.7042   6.4812   8.3299   9.9807

          k =-0.4375 0.4375-0.0625 (  2268 PWs)   bands (ev):

   -11.7266 -11.7207 -11.5724 -11.4701 -11.4110 -11.1877 -11.1456 -11.1012
   -10.9332 -10.9222  -0.0223   5.0991   7.2458   9.3811

          k = 0.4375-0.4375 0.8125 (  2274 PWs)   bands (ev):

   -11.7487 -11.7233 -11.5473 -11.4308 -11.3956 -11.1916 -11.1911 -11.1339
   -10.9207 -10.9013   0.7821   3.7127   7.0447   8.7835

          k = 0.3125-0.3125 0.6875 (  2275 PWs)   bands (ev):

   -11.7490 -11.7157 -11.5657 -11.4169 -11.3916 -11.2443 -11.1590 -11.1104
   -10.9333 -10.8983   0.7981   3.6834   7.3236   8.4447

          k = 0.1875-0.1875 0.5625 (  2274 PWs)   bands (ev):

   -11.7284 -11.7020 -11.6111 -11.4523 -11.3865 -11.2594 -11.1159 -11.0572
   -10.9566 -10.9216  -0.0048   5.0950   7.9439   8.4437

          k =-0.1875 0.4375 0.1875 (  2263 PWs)   bands (ev):

   -11.7120 -11.6905 -11.6250 -11.4827 -11.4348 -11.1981 -11.0904 -11.0527
   -10.9725 -10.9374  -0.4693   5.8383   8.7681   8.9112

          k =-0.3125 0.5625 0.0625 (  2270 PWs)   bands (ev):

   -11.7295 -11.7203 -11.5834 -11.4523 -11.3825 -11.2529 -11.1211 -11.0937
   -10.9340 -10.9194   0.1036   5.0019   7.2938   8.6893

          k = 0.5625-0.3125 0.9375 (  2272 PWs)   bands (ev):

   -11.7557 -11.7353 -11.5276 -11.4109 -11.3421 -11.2847 -11.1822 -11.1436
   -10.9081 -10.8917   0.9134   3.9097   6.5459   8.1170

          k = 0.4375-0.1875 0.8125 (  2264 PWs)   bands (ev):

   -11.7632 -11.7362 -11.5160 -11.3823 -11.3361 -11.2979 -11.2094 -11.1489
   -10.9073 -10.8807   1.3485   3.3481   6.5300   7.8038

          k = 0.3125-0.0625 0.6875 (  2268 PWs)   bands (ev):

   -11.7432 -11.7306 -11.5604 -11.4132 -11.3344 -11.3117 -11.1591 -11.1089
   -10.9169 -10.9044   0.6594   4.2721   6.9396   7.9824

          k =-0.1875 0.6875 0.1875 (  2279 PWs)   bands (ev):

   -11.7426 -11.7146 -11.5883 -11.4114 -11.3418 -11.3130 -11.1552 -11.0762
   -10.9372 -10.9050   0.5605   4.3478   7.2529   8.0755

          k = 0.6875-0.1875 1.0625 (  2269 PWs)   bands (ev):

   -11.7531 -11.7398 -11.5289 -11.3749 -11.3650 -11.2795 -11.2073 -11.1349
   -10.9040 -10.8908   1.2978   3.5309   6.7139   7.4501

          k = 0.5625-0.0625 0.9375 (  2264 PWs)   bands (ev):

   -11.7642 -11.7532 -11.4627 -11.3923 -11.3242 -11.2715 -11.2505 -11.1912
   -10.8881 -10.8771   2.0322   2.7982   6.4428   6.9918

          k = 0.4375 0.0625 0.8125 (  2270 PWs)   bands (ev):

   -11.7626 -11.7453 -11.4977 -11.3699 -11.3414 -11.2959 -11.2240 -11.1631
   -10.8973 -10.8809   1.4756   3.3414   6.4205   7.4465

          k =-0.1875-1.0625 0.1875 (  2273 PWs)   bands (ev):

   -11.7591 -11.7295 -11.5281 -11.4250 -11.3128 -11.2530 -11.2373 -11.1378
   -10.9114 -10.8826   1.8919   2.8397   6.5220   7.6942

          k =-0.3125-0.9375 0.0625 (  2270 PWs)   bands (ev):

   -11.7580 -11.7452 -11.4922 -11.4250 -11.3149 -11.2596 -11.2322 -11.1687
   -10.8964 -10.8836   1.9857   2.7941   6.6124   7.1606

          k =-0.1875-0.8125 0.1875 (  2280 PWs)   bands (ev):

   -11.7535 -11.7243 -11.5580 -11.3817 -11.3637 -11.2789 -11.2026 -11.1064
   -10.9206 -10.8906   1.2102   3.5819   6.7679   7.8227

          k =-0.3125 0.3125 0.3125 (  2253 PWs)   bands (ev):

   -11.6977 -11.6977 -11.6217 -11.4734 -11.4734 -11.1174 -11.1174 -11.0872
   -10.9538 -10.9538  -0.3723   5.2138   9.4641   9.4641

          k =-0.4375 0.4375 0.1875 (  2268 PWs)   bands (ev):

   -11.7196 -11.7160 -11.5849 -11.4687 -11.4276 -11.1681 -11.1342 -11.1033
   -10.9388 -10.9289   0.0643   4.6169   7.8912   9.3528

          k = 0.4375-0.4375 1.0625 (  2277 PWs)   bands (ev):

   -11.7571 -11.7288 -11.5323 -11.4221 -11.3674 -11.2211 -11.2112 -11.1389
   -10.9133 -10.8920   0.7844   3.9987   6.4732   8.7205

          k = 0.3125-0.3125 0.9375 (  2280 PWs)   bands (ev):

   -11.7702 -11.7307 -11.5225 -11.3377 -11.3332 -11.3149 -11.2441 -11.1428
   -10.9108 -10.8731   1.5278   3.2203   6.1753   8.1291

          k =-0.3125 0.5625 0.3125 (  2275 PWs)   bands (ev):

   -11.7310 -11.7058 -11.5910 -11.4506 -11.4230 -11.1990 -11.1263 -11.0951
   -10.9489 -10.9180   0.3479   4.0896   8.1935   8.7388

          k = 0.5625-0.3125 1.1875 (  2272 PWs)   bands (ev):

   -11.7529 -11.7274 -11.5413 -11.4173 -11.3724 -11.2524 -11.1712 -11.1349
   -10.9184 -10.8943   0.9094   3.6797   6.9436   8.2736

          k = 0.4375-0.1875 1.0625 (  2266 PWs)   bands (ev):

   -11.7682 -11.7421 -11.4958 -11.3545 -11.3333 -11.3001 -11.2455 -11.1633
   -10.8996 -10.8744   1.6581   3.1357   6.2613   7.5691

          k =-0.3125-1.1875 0.3125 (  2279 PWs)   bands (ev):

   -11.7628 -11.7252 -11.5401 -11.3746 -11.3615 -11.2849 -11.2024 -11.1291
   -10.9191 -10.8819   1.2327   3.3887   6.6013   8.2365

          k =-0.4375 0.4375 0.4375 (  2280 PWs)   bands (ev):

   -11.7054 -11.7054 -11.6107 -11.4588 -11.4588 -11.1267 -11.1267 -11.1031
   -10.9472 -10.9472   0.4264   3.6504   9.1789   9.1789

          k = 0.4375-0.4375 1.3125 (  2275 PWs)   bands (ev):

   -11.7335 -11.7147 -11.5725 -11.4414 -11.4286 -11.1630 -11.1563 -11.1246
   -10.9333 -10.9179   0.7401   3.4605   7.8769   8.8977

     highest occupied level (ev):    10.5724

!    total energy              =    -318.43417715 Ry
     Harris-Foulkes estimate   =    -318.43417715 Ry
     estimated scf accuracy    <          1.0E-09 Ry

     The total energy is the sum of the following terms:

     one-electron contribution =    -136.79180858 Ry
     hartree contribution      =      88.22768909 Ry
     xc contribution           =     -86.25050694 Ry
     ewald contribution        =    -183.61955072 Ry

     convergence has been achieved in   7 iterations

     Writing output data file sn.alpha.11.5.save

     init_run     :      1.05s CPU      1.08s WALL (       1 calls)
     electrons    :     15.09s CPU     15.64s WALL (       1 calls)

     Called by init_run:
     wfcinit      :      0.66s CPU      0.69s WALL (       1 calls)
     potinit      :      0.04s CPU      0.05s WALL (       1 calls)

     Called by electrons:
     c_bands      :     12.23s CPU     12.55s WALL (       7 calls)
     sum_band     :      2.22s CPU      2.33s WALL (       7 calls)
     v_of_rho     :      0.26s CPU      0.27s WALL (       8 calls)
     newd         :      0.41s CPU      0.48s WALL (       8 calls)
     mix_rho      :      0.02s CPU      0.02s WALL (       7 calls)

     Called by c_bands:
     init_us_2    :      0.28s CPU      0.29s WALL (     900 calls)
     cegterg      :     11.68s CPU     11.99s WALL (     420 calls)

     Called by sum_band:
     sum_band:bec :      0.00s CPU      0.00s WALL (     420 calls)
     addusdens    :      0.42s CPU      0.50s WALL (       7 calls)

     Called by *egterg:
     h_psi        :     10.22s CPU     10.54s WALL (    1723 calls)
     s_psi        :      0.16s CPU      0.17s WALL (    1723 calls)
     g_psi        :      0.06s CPU      0.06s WALL (    1243 calls)
     cdiaghg      :      0.72s CPU      0.72s WALL (    1663 calls)

     Called by h_psi:
     h_psi:pot    :     10.16s CPU     10.47s WALL (    1723 calls)
     h_psi:calbec :      0.36s CPU      0.37s WALL (    1723 calls)
     vloc_psi     :      9.59s CPU      9.88s WALL (    1723 calls)
     add_vuspsi   :      0.20s CPU      0.21s WALL (    1723 calls)

     General routines
     calbec       :      0.45s CPU      0.45s WALL (    2143 calls)
     fft          :      0.14s CPU      0.15s WALL (     124 calls)
     ffts         :      0.01s CPU      0.01s WALL (      15 calls)
     fftw         :      9.55s CPU      9.73s WALL (   45734 calls)
     interpolate  :      0.03s CPU      0.03s WALL (      15 calls)
     davcio       :      0.00s CPU      0.00s WALL (      60 calls)

     Parallel routines
     fft_scatter  :      1.39s CPU      1.45s WALL (   45873 calls)

     PWSCF        :    16.29s CPU        18.03s WALL


   This run was terminated on:  15:31:43  11Nov2017            

=------------------------------------------------------------------------------=
   JOB DONE.
=------------------------------------------------------------------------------=
