
     Program PWSCF v.6.1 (svn rev. 13369) starts on 11Nov2017 at 16:30:57 

     This program is part of the open-source Quantum ESPRESSO suite
     for quantum simulation of materials; please cite
         "P. Giannozzi et al., J. Phys.:Condens. Matter 21 395502 (2009);
          URL http://www.quantum-espresso.org", 
     in publications or presentations arising from this work. More details at
     http://www.quantum-espresso.org/quote

     Parallel version (MPI), running on     4 processors
     R & G space division:  proc/nbgrp/npool/nimage =       4
     Waiting for input...
     Reading input from standard input
     Message from routine read_cards :
     DEPRECATED: no units specified in ATOMIC_POSITIONS card
     Message from routine read_cards :
     ATOMIC_POSITIONS: units set to alat

     Current dimensions of program PWSCF are:
     Max number of different atomic species (ntypx) = 10
     Max number of k-points (npk) =  40000
     Max angular momentum in pseudopotentials (lmaxx) =  3

     Subspace diagonalization in iterative solution of the eigenvalue problem:
     a serial algorithm will be used


     Parallelization info
     --------------------
     sticks:   dense  smooth     PW     G-vecs:    dense   smooth      PW
     Min         540     267     84                16574     5875    1003
     Max         541     268     85                16577     5880    1005
     Sum        2161    1069    337                66299    23505    4015



     bravais-lattice index     =            2
     lattice parameter (alat)  =      12.5320  a.u.
     unit-cell volume          =     492.0409 (a.u.)^3
     number of atoms/cell      =            2
     number of atomic types    =            1
     number of electrons       =        28.00
     number of Kohn-Sham states=           14
     kinetic-energy cutoff     =      50.0000  Ry
     charge density cutoff     =     400.0000  Ry
     convergence threshold     =      1.0E-08
     mixing beta               =       0.7000
     number of iterations used =            8  plain     mixing
     Exchange-correlation      =  SLA  PW   PBX  PBC ( 1  4  3  4 0 0)

     celldm(1)=  12.532000  celldm(2)=   0.000000  celldm(3)=   0.000000
     celldm(4)=   0.000000  celldm(5)=   0.000000  celldm(6)=   0.000000

     crystal axes: (cart. coord. in units of alat)
               a(1) = (  -0.500000   0.000000   0.500000 )  
               a(2) = (   0.000000   0.500000   0.500000 )  
               a(3) = (  -0.500000   0.500000   0.000000 )  

     reciprocal axes: (cart. coord. in units 2 pi/alat)
               b(1) = ( -1.000000 -1.000000  1.000000 )  
               b(2) = (  1.000000  1.000000  1.000000 )  
               b(3) = ( -1.000000  1.000000 -1.000000 )  


     PseudoPot. # 1 for Sn read from file:
     /home/s1333534/quantum_espresso/qe-6.1/pseudo/sn_pbe_v1.4.uspp.F.UPF
     MD5 check sum: 469debedee59599fedebd795477fea03
     Pseudo is Ultrasoft + core correction, Zval = 14.0
     Generated by new atomic code, or converted to UPF format
     Using radial grid of  891 points,  6 beta functions with: 
                l(1) =   0
                l(2) =   0
                l(3) =   1
                l(4) =   1
                l(5) =   2
                l(6) =   2
     Q(r) pseudized with  8 coefficients,  rinner =    1.350   1.350   1.350
                                                       1.350   1.350

     atomic species   valence    mass     pseudopotential
        Sn            14.00   118.71000     Sn( 1.00)

     48 Sym. Ops., with inversion, found (24 have fractional translation)



   Cartesian axes

     site n.     atom                  positions (alat units)
         1           Sn  tau(   1) = (   0.0000000   0.0000000   0.0000000  )
         2           Sn  tau(   2) = (   0.2500000   0.2500000   0.2500000  )

     number of k points=   182

     Number of k-points >= 100: set verbosity='high' to print them.

     Dense  grid:    66299 G-vectors     FFT dimensions: (  60,  60,  60)

     Smooth grid:    23505 G-vectors     FFT dimensions: (  40,  40,  40)

     Estimated max dynamical RAM per process >      40.72MB

     Estimated total allocated dynamical RAM >     162.88MB

     Initial potential from superposition of free atoms

     starting charge   25.99991, renormalised to   28.00000
     Starting wfc are   18 randomized atomic wfcs

     total cpu time spent up to now is        2.9 secs

     per-process dynamical memory:    45.6 Mb

     Self-consistent Calculation

     iteration #  1     ecut=    50.00 Ry     beta=0.70
     Davidson diagonalization with overlap
     ethr =  1.00E-02,  avg # of iterations =  2.7

     total cpu time spent up to now is       10.0 secs

     total energy              =    -317.48597208 Ry
     Harris-Foulkes estimate   =    -319.54716924 Ry
     estimated scf accuracy    <       2.51138566 Ry

     iteration #  2     ecut=    50.00 Ry     beta=0.70
     Davidson diagonalization with overlap
     ethr =  8.97E-03,  avg # of iterations =  3.0

     total cpu time spent up to now is       17.6 secs

     total energy              =    -318.39380301 Ry
     Harris-Foulkes estimate   =    -318.71190377 Ry
     estimated scf accuracy    <       0.47376598 Ry

     iteration #  3     ecut=    50.00 Ry     beta=0.70
     Davidson diagonalization with overlap
     ethr =  1.69E-03,  avg # of iterations =  2.0

     total cpu time spent up to now is       24.6 secs

     total energy              =    -318.48883561 Ry
     Harris-Foulkes estimate   =    -318.49040867 Ry
     estimated scf accuracy    <       0.00288259 Ry

     iteration #  4     ecut=    50.00 Ry     beta=0.70
     Davidson diagonalization with overlap
     ethr =  1.03E-05,  avg # of iterations =  3.0

     total cpu time spent up to now is       31.8 secs

     total energy              =    -318.48972645 Ry
     Harris-Foulkes estimate   =    -318.48984375 Ry
     estimated scf accuracy    <       0.00017392 Ry

     iteration #  5     ecut=    50.00 Ry     beta=0.70
     Davidson diagonalization with overlap
     ethr =  6.21E-07,  avg # of iterations =  3.0

     total cpu time spent up to now is       39.2 secs

     total energy              =    -318.48977969 Ry
     Harris-Foulkes estimate   =    -318.48978037 Ry
     estimated scf accuracy    <       0.00000143 Ry

     iteration #  6     ecut=    50.00 Ry     beta=0.70
     Davidson diagonalization with overlap
     ethr =  5.11E-09,  avg # of iterations =  4.0

     total cpu time spent up to now is       47.2 secs

     total energy              =    -318.48978046 Ry
     Harris-Foulkes estimate   =    -318.48978051 Ry
     estimated scf accuracy    <       0.00000008 Ry

     iteration #  7     ecut=    50.00 Ry     beta=0.70
     Davidson diagonalization with overlap
     ethr =  2.81E-10,  avg # of iterations =  3.1

     total cpu time spent up to now is       54.8 secs

     End of self-consistent calculation

     Number of k-points >= 100: set verbosity='high' to print the bands.

     highest occupied level (ev):     7.0998

!    total energy              =    -318.48978049 Ry
     Harris-Foulkes estimate   =    -318.48978049 Ry
     estimated scf accuracy    <          2.4E-09 Ry

     The total energy is the sum of the following terms:

     one-electron contribution =    -161.27066717 Ry
     hartree contribution      =      97.25089729 Ry
     xc contribution           =     -85.97138044 Ry
     ewald contribution        =    -168.49863017 Ry

     convergence has been achieved in   7 iterations

     Writing output data file sn.alpha.12.532.save

     init_run     :      2.78s CPU      2.88s WALL (       1 calls)
     electrons    :     50.38s CPU     51.86s WALL (       1 calls)

     Called by init_run:
     wfcinit      :      2.31s CPU      2.38s WALL (       1 calls)
     potinit      :      0.06s CPU      0.06s WALL (       1 calls)

     Called by electrons:
     c_bands      :     42.55s CPU     43.66s WALL (       7 calls)
     sum_band     :      7.03s CPU      7.28s WALL (       7 calls)
     v_of_rho     :      0.36s CPU      0.38s WALL (       8 calls)
     newd         :      0.49s CPU      0.57s WALL (       8 calls)
     mix_rho      :      0.03s CPU      0.03s WALL (       7 calls)

     Called by c_bands:
     init_us_2    :      1.16s CPU      1.18s WALL (    2730 calls)
     cegterg      :     40.40s CPU     41.47s WALL (    1274 calls)

     Called by sum_band:
     sum_band:bec :      0.01s CPU      0.01s WALL (    1274 calls)
     addusdens    :      0.54s CPU      0.63s WALL (       7 calls)

     Called by *egterg:
     h_psi        :     34.85s CPU     35.90s WALL (    5240 calls)
     s_psi        :      0.68s CPU      0.69s WALL (    5240 calls)
     g_psi        :      0.23s CPU      0.23s WALL (    3784 calls)
     cdiaghg      :      2.24s CPU      2.24s WALL (    5058 calls)

     Called by h_psi:
     h_psi:pot    :     34.50s CPU     35.55s WALL (    5240 calls)
     h_psi:calbec :      1.52s CPU      1.55s WALL (    5240 calls)
     vloc_psi     :     32.07s CPU     33.06s WALL (    5240 calls)
     add_vuspsi   :      0.90s CPU      0.93s WALL (    5240 calls)

     General routines
     calbec       :      1.91s CPU      1.94s WALL (    6514 calls)
     fft          :      0.17s CPU      0.18s WALL (     124 calls)
     ffts         :      0.01s CPU      0.01s WALL (      15 calls)
     fftw         :     29.96s CPU     31.00s WALL (  138352 calls)
     interpolate  :      0.04s CPU      0.04s WALL (      15 calls)
     davcio       :      0.00s CPU      0.01s WALL (     182 calls)

     Parallel routines
     fft_scatter  :      5.50s CPU      5.30s WALL (  138491 calls)

     PWSCF        :    53.48s CPU        57.99s WALL


   This run was terminated on:  16:31:55  11Nov2017            

=------------------------------------------------------------------------------=
   JOB DONE.
=------------------------------------------------------------------------------=
