
     Program PWSCF v.6.1 (svn rev. 13369) starts on 12Nov2017 at 13: 4: 0 

     This program is part of the open-source Quantum ESPRESSO suite
     for quantum simulation of materials; please cite
         "P. Giannozzi et al., J. Phys.:Condens. Matter 21 395502 (2009);
          URL http://www.quantum-espresso.org", 
     in publications or presentations arising from this work. More details at
     http://www.quantum-espresso.org/quote

     Parallel version (MPI), running on     4 processors
     R & G space division:  proc/nbgrp/npool/nimage =       4
     Waiting for input...
     Reading input from standard input
     Message from routine read_cards :
     DEPRECATED: no units specified in ATOMIC_POSITIONS card
     Message from routine read_cards :
     ATOMIC_POSITIONS: units set to alat

     Current dimensions of program PWSCF are:
     Max number of different atomic species (ntypx) = 10
     Max number of k-points (npk) =  40000
     Max angular momentum in pseudopotentials (lmaxx) =  3

     Subspace diagonalization in iterative solution of the eigenvalue problem:
     a serial algorithm will be used


     Parallelization info
     --------------------
     sticks:   dense  smooth     PW     G-vecs:    dense   smooth      PW
     Min         957     478    139                39074    13835    2163
     Max         958     479    140                39077    13838    2165
     Sum        3829    1915    559               156301    55345    8657



     bravais-lattice index     =            2
     lattice parameter (alat)  =      12.5650  a.u.
     unit-cell volume          =     495.9381 (a.u.)^3
     number of atoms/cell      =            2
     number of atomic types    =            1
     number of electrons       =        28.00
     number of Kohn-Sham states=           14
     kinetic-energy cutoff     =      88.0000  Ry
     charge density cutoff     =     704.0000  Ry
     convergence threshold     =      1.0E-08
     mixing beta               =       0.7000
     number of iterations used =            8  plain     mixing
     Exchange-correlation      =  SLA  PW   PBX  PBC ( 1  4  3  4 0 0)

     celldm(1)=  12.565000  celldm(2)=   0.000000  celldm(3)=   0.000000
     celldm(4)=   0.000000  celldm(5)=   0.000000  celldm(6)=   0.000000

     crystal axes: (cart. coord. in units of alat)
               a(1) = (  -0.500000   0.000000   0.500000 )  
               a(2) = (   0.000000   0.500000   0.500000 )  
               a(3) = (  -0.500000   0.500000   0.000000 )  

     reciprocal axes: (cart. coord. in units 2 pi/alat)
               b(1) = ( -1.000000 -1.000000  1.000000 )  
               b(2) = (  1.000000  1.000000  1.000000 )  
               b(3) = ( -1.000000  1.000000 -1.000000 )  


     PseudoPot. # 1 for Sn read from file:
     /home/s1333534/quantum_espresso/qe-6.1/pseudo/sn_pbe_v1.4.uspp.F.UPF
     MD5 check sum: 469debedee59599fedebd795477fea03
     Pseudo is Ultrasoft + core correction, Zval = 14.0
     Generated by new atomic code, or converted to UPF format
     Using radial grid of  891 points,  6 beta functions with: 
                l(1) =   0
                l(2) =   0
                l(3) =   1
                l(4) =   1
                l(5) =   2
                l(6) =   2
     Q(r) pseudized with  8 coefficients,  rinner =    1.350   1.350   1.350
                                                       1.350   1.350

     atomic species   valence    mass     pseudopotential
        Sn            14.00   118.71000     Sn( 1.00)

     24 Sym. Ops. (no inversion) found
          (note: 24 additional sym.ops. were found but ignored
           their fractional translations are incommensurate with FFT grid)


   Cartesian axes

     site n.     atom                  positions (alat units)
         1           Sn  tau(   1) = (   0.0000000   0.0000000   0.0000000  )
         2           Sn  tau(   2) = (   0.2500000   0.2500000   0.2500000  )

     number of k points=    60
                       cart. coord. in units 2pi/alat
        k(    1) = (  -0.0625000   0.0625000   0.0625000), wk =   0.0078125
        k(    2) = (  -0.1875000   0.1875000  -0.0625000), wk =   0.0234375
        k(    3) = (  -0.3125000   0.3125000  -0.1875000), wk =   0.0234375
        k(    4) = (  -0.4375000   0.4375000  -0.3125000), wk =   0.0234375
        k(    5) = (   0.4375000  -0.4375000   0.5625000), wk =   0.0234375
        k(    6) = (   0.3125000  -0.3125000   0.4375000), wk =   0.0234375
        k(    7) = (   0.1875000  -0.1875000   0.3125000), wk =   0.0234375
        k(    8) = (   0.0625000  -0.0625000   0.1875000), wk =   0.0234375
        k(    9) = (  -0.0625000   0.3125000   0.0625000), wk =   0.0234375
        k(   10) = (  -0.1875000   0.4375000  -0.0625000), wk =   0.0468750
        k(   11) = (  -0.3125000   0.5625000  -0.1875000), wk =   0.0468750
        k(   12) = (   0.5625000  -0.3125000   0.6875000), wk =   0.0468750
        k(   13) = (   0.4375000  -0.1875000   0.5625000), wk =   0.0468750
        k(   14) = (   0.3125000  -0.0625000   0.4375000), wk =   0.0468750
        k(   15) = (   0.1875000   0.0625000   0.3125000), wk =   0.0468750
        k(   16) = (  -0.0625000   0.5625000   0.0625000), wk =   0.0234375
        k(   17) = (  -0.1875000   0.6875000  -0.0625000), wk =   0.0468750
        k(   18) = (   0.6875000  -0.1875000   0.8125000), wk =   0.0468750
        k(   19) = (   0.5625000  -0.0625000   0.6875000), wk =   0.0468750
        k(   20) = (   0.4375000   0.0625000   0.5625000), wk =   0.0468750
        k(   21) = (   0.3125000   0.1875000   0.4375000), wk =   0.0468750
        k(   22) = (  -0.0625000   0.8125000   0.0625000), wk =   0.0234375
        k(   23) = (   0.8125000  -0.0625000   0.9375000), wk =   0.0468750
        k(   24) = (   0.6875000   0.0625000   0.8125000), wk =   0.0468750
        k(   25) = (   0.5625000   0.1875000   0.6875000), wk =   0.0468750
        k(   26) = (   0.4375000   0.3125000   0.5625000), wk =   0.0468750
        k(   27) = (  -0.0625000  -0.9375000   0.0625000), wk =   0.0234375
        k(   28) = (  -0.1875000  -0.8125000  -0.0625000), wk =   0.0468750
        k(   29) = (  -0.3125000  -0.6875000  -0.1875000), wk =   0.0468750
        k(   30) = (  -0.0625000  -0.6875000   0.0625000), wk =   0.0234375
        k(   31) = (  -0.1875000  -0.5625000  -0.0625000), wk =   0.0468750
        k(   32) = (  -0.0625000  -0.4375000   0.0625000), wk =   0.0234375
        k(   33) = (  -0.1875000   0.1875000   0.1875000), wk =   0.0078125
        k(   34) = (  -0.3125000   0.3125000   0.0625000), wk =   0.0234375
        k(   35) = (  -0.4375000   0.4375000  -0.0625000), wk =   0.0234375
        k(   36) = (   0.4375000  -0.4375000   0.8125000), wk =   0.0234375
        k(   37) = (   0.3125000  -0.3125000   0.6875000), wk =   0.0234375
        k(   38) = (   0.1875000  -0.1875000   0.5625000), wk =   0.0234375
        k(   39) = (  -0.1875000   0.4375000   0.1875000), wk =   0.0234375
        k(   40) = (  -0.3125000   0.5625000   0.0625000), wk =   0.0468750
        k(   41) = (   0.5625000  -0.3125000   0.9375000), wk =   0.0468750
        k(   42) = (   0.4375000  -0.1875000   0.8125000), wk =   0.0468750
        k(   43) = (   0.3125000  -0.0625000   0.6875000), wk =   0.0468750
        k(   44) = (  -0.1875000   0.6875000   0.1875000), wk =   0.0234375
        k(   45) = (   0.6875000  -0.1875000   1.0625000), wk =   0.0468750
        k(   46) = (   0.5625000  -0.0625000   0.9375000), wk =   0.0468750
        k(   47) = (   0.4375000   0.0625000   0.8125000), wk =   0.0468750
        k(   48) = (  -0.1875000  -1.0625000   0.1875000), wk =   0.0234375
        k(   49) = (  -0.3125000  -0.9375000   0.0625000), wk =   0.0468750
        k(   50) = (  -0.1875000  -0.8125000   0.1875000), wk =   0.0234375
        k(   51) = (  -0.3125000   0.3125000   0.3125000), wk =   0.0078125
        k(   52) = (  -0.4375000   0.4375000   0.1875000), wk =   0.0234375
        k(   53) = (   0.4375000  -0.4375000   1.0625000), wk =   0.0234375
        k(   54) = (   0.3125000  -0.3125000   0.9375000), wk =   0.0234375
        k(   55) = (  -0.3125000   0.5625000   0.3125000), wk =   0.0234375
        k(   56) = (   0.5625000  -0.3125000   1.1875000), wk =   0.0468750
        k(   57) = (   0.4375000  -0.1875000   1.0625000), wk =   0.0468750
        k(   58) = (  -0.3125000  -1.1875000   0.3125000), wk =   0.0234375
        k(   59) = (  -0.4375000   0.4375000   0.4375000), wk =   0.0078125
        k(   60) = (   0.4375000  -0.4375000   1.3125000), wk =   0.0234375

     Dense  grid:   156301 G-vectors     FFT dimensions: (  75,  75,  75)

     Smooth grid:    55345 G-vectors     FFT dimensions: (  54,  54,  54)

     Estimated max dynamical RAM per process >      49.32MB

     Estimated total allocated dynamical RAM >     197.29MB

     Initial potential from superposition of free atoms

     starting charge   25.99991, renormalised to   28.00000
     Starting wfc are   18 randomized atomic wfcs

     total cpu time spent up to now is        3.2 secs

     per-process dynamical memory:    49.3 Mb

     Self-consistent Calculation

     iteration #  1     ecut=    88.00 Ry     beta=0.70
     Davidson diagonalization with overlap
     ethr =  1.00E-02,  avg # of iterations =  2.6

     total cpu time spent up to now is       10.4 secs

     total energy              =    -317.48855519 Ry
     Harris-Foulkes estimate   =    -319.56365448 Ry
     estimated scf accuracy    <       2.52484901 Ry

     iteration #  2     ecut=    88.00 Ry     beta=0.70
     Davidson diagonalization with overlap
     ethr =  9.02E-03,  avg # of iterations =  3.0

     total cpu time spent up to now is       18.4 secs

     total energy              =    -318.40524033 Ry
     Harris-Foulkes estimate   =    -318.72617044 Ry
     estimated scf accuracy    <       0.47916849 Ry

     iteration #  3     ecut=    88.00 Ry     beta=0.70
     Davidson diagonalization with overlap
     ethr =  1.71E-03,  avg # of iterations =  2.0

     total cpu time spent up to now is       25.6 secs

     total energy              =    -318.50133145 Ry
     Harris-Foulkes estimate   =    -318.50281692 Ry
     estimated scf accuracy    <       0.00300724 Ry

     iteration #  4     ecut=    88.00 Ry     beta=0.70
     Davidson diagonalization with overlap
     ethr =  1.07E-05,  avg # of iterations =  3.1

     total cpu time spent up to now is       33.1 secs

     total energy              =    -318.50225620 Ry
     Harris-Foulkes estimate   =    -318.50236438 Ry
     estimated scf accuracy    <       0.00017645 Ry

     iteration #  5     ecut=    88.00 Ry     beta=0.70
     Davidson diagonalization with overlap
     ethr =  6.30E-07,  avg # of iterations =  3.0

     total cpu time spent up to now is       40.8 secs

     total energy              =    -318.50231180 Ry
     Harris-Foulkes estimate   =    -318.50231185 Ry
     estimated scf accuracy    <       0.00000174 Ry

     iteration #  6     ecut=    88.00 Ry     beta=0.70
     Davidson diagonalization with overlap
     ethr =  6.22E-09,  avg # of iterations =  3.9

     total cpu time spent up to now is       48.7 secs

     total energy              =    -318.50231261 Ry
     Harris-Foulkes estimate   =    -318.50231263 Ry
     estimated scf accuracy    <       0.00000013 Ry

     iteration #  7     ecut=    88.00 Ry     beta=0.70
     Davidson diagonalization with overlap
     ethr =  4.55E-10,  avg # of iterations =  3.1

     total cpu time spent up to now is       56.6 secs

     End of self-consistent calculation

          k =-0.0625 0.0625 0.0625 (  6879 PWs)   bands (ev):

   -14.6257 -14.6257 -14.6222 -14.5702 -14.5702 -14.3297 -14.3297 -14.3203
   -14.3085 -14.3085  -3.1478   5.4066   6.9675   6.9675

          k =-0.1875 0.1875-0.0625 (  6909 PWs)   bands (ev):

   -14.6375 -14.6326 -14.6188 -14.5592 -14.5524 -14.3527 -14.3436 -14.3181
   -14.3030 -14.2904  -2.9626   4.2353   6.2874   6.8301

          k =-0.3125 0.3125-0.1875 (  6903 PWs)   bands (ev):

   -14.6487 -14.6456 -14.6076 -14.5415 -14.5318 -14.3712 -14.3595 -14.3334
   -14.2858 -14.2784  -2.5222   2.6671   5.7942   6.4076

          k =-0.4375 0.4375-0.3125 (  6917 PWs)   bands (ev):

   -14.6543 -14.6538 -14.5970 -14.5284 -14.5211 -14.3786 -14.3694 -14.3486
   -14.2748 -14.2734  -1.9411   1.3657   5.5484   6.0488

          k = 0.4375-0.4375 0.5625 (  6911 PWs)   bands (ev):

   -14.6574 -14.6536 -14.5942 -14.5222 -14.5214 -14.3776 -14.3753 -14.3518
   -14.2743 -14.2704  -1.6838   0.9219   5.5480   5.8754

          k = 0.3125-0.3125 0.4375 (  6909 PWs)   bands (ev):

   -14.6548 -14.6493 -14.6013 -14.5315 -14.5229 -14.3807 -14.3654 -14.3417
   -14.2802 -14.2728  -2.1332   1.7411   5.7775   5.9249

          k = 0.1875-0.1875 0.3125 (  6912 PWs)   bands (ev):

   -14.6457 -14.6406 -14.6132 -14.5475 -14.5366 -14.3710 -14.3501 -14.3272
   -14.2911 -14.2822  -2.6932   3.1829   6.1943   6.1950

          k = 0.0625-0.0625 0.1875 (  6912 PWs)   bands (ev):

   -14.6316 -14.6288 -14.6227 -14.5659 -14.5577 -14.3509 -14.3302 -14.3169
   -14.3077 -14.2971  -3.0545   4.7489   6.6221   6.6551

          k =-0.0625 0.3125 0.0625 (  6927 PWs)   bands (ev):

   -14.6380 -14.6346 -14.6243 -14.5570 -14.5371 -14.3777 -14.3359 -14.3099
   -14.3023 -14.2903  -2.8686   3.9461   6.1520   6.1672

          k =-0.1875 0.4375-0.0625 (  6915 PWs)   bands (ev):

   -14.6509 -14.6459 -14.6116 -14.5410 -14.5135 -14.4028 -14.3526 -14.3206
   -14.2874 -14.2770  -2.5080   2.8394   5.3806   5.9293

          k =-0.3125 0.5625-0.1875 (  6914 PWs)   bands (ev):

   -14.6650 -14.6546 -14.5894 -14.5232 -14.4995 -14.4135 -14.3714 -14.3462
   -14.2741 -14.2623  -1.9465   1.5989   4.8732   5.6293

          k = 0.5625-0.3125 0.6875 (  6915 PWs)   bands (ev):

   -14.6715 -14.6590 -14.5740 -14.5098 -14.5025 -14.4042 -14.3885 -14.3646
   -14.2676 -14.2554  -1.4896   0.8380   4.6118   5.5625

          k = 0.4375-0.1875 0.5625 (  6918 PWs)   bands (ev):

   -14.6679 -14.6590 -14.5772 -14.5210 -14.5012 -14.4034 -14.3758 -14.3654
   -14.2673 -14.2600  -1.7581   1.2643   4.6154   5.7695

          k = 0.3125-0.0625 0.4375 (  6909 PWs)   bands (ev):

   -14.6557 -14.6532 -14.5968 -14.5371 -14.5131 -14.3959 -14.3616 -14.3392
   -14.2783 -14.2710  -2.3423   2.4078   4.9717   6.1571

          k = 0.1875 0.0625 0.3125 (  6919 PWs)   bands (ev):

   -14.6441 -14.6386 -14.6157 -14.5520 -14.5362 -14.3745 -14.3460 -14.3188
   -14.2971 -14.2832  -2.7797   3.5572   5.8263   6.4499

          k =-0.0625 0.5625 0.0625 (  6921 PWs)   bands (ev):

   -14.6528 -14.6501 -14.6157 -14.5259 -14.4831 -14.4401 -14.3647 -14.3100
   -14.2811 -14.2772  -2.2269   2.3020   5.2631   5.3514

          k =-0.1875 0.6875-0.0625 (  6916 PWs)   bands (ev):

   -14.6651 -14.6599 -14.5916 -14.5051 -14.4654 -14.4585 -14.3860 -14.3364
   -14.2677 -14.2619  -1.7131   1.3939   4.6987   5.0899

          k = 0.6875-0.1875 0.8125 (  6911 PWs)   bands (ev):

   -14.6792 -14.6646 -14.5614 -14.4852 -14.4683 -14.4527 -14.4091 -14.3680
   -14.2608 -14.2461  -1.1400   0.5944   4.1221   5.0591

          k = 0.5625-0.0625 0.6875 (  6919 PWs)   bands (ev):

   -14.6817 -14.6657 -14.5529 -14.4903 -14.4721 -14.4357 -14.4166 -14.3777
   -14.2590 -14.2440  -1.2041   0.6760   3.9092   5.3120

          k = 0.4375 0.0625 0.5625 (  6920 PWs)   bands (ev):

   -14.6708 -14.6618 -14.5704 -14.5204 -14.4914 -14.4142 -14.3770 -14.3712
   -14.2635 -14.2574  -1.7864   1.4320   4.2891   5.7459

          k = 0.3125 0.1875 0.4375 (  6915 PWs)   bands (ev):

   -14.6560 -14.6500 -14.5997 -14.5350 -14.5180 -14.3894 -14.3622 -14.3394
   -14.2805 -14.2714  -2.2709   2.1279   5.3379   6.0636

          k =-0.0625 0.8125 0.0625 (  6932 PWs)   bands (ev):

   -14.6649 -14.6625 -14.5851 -14.5050 -14.4818 -14.4226 -14.4078 -14.3420
   -14.2631 -14.2607  -1.2490   0.7396   4.7315   4.8569

          k = 0.8125-0.0625 0.9375 (  6919 PWs)   bands (ev):

   -14.6730 -14.6676 -14.5533 -14.5231 -14.4580 -14.4327 -14.4040 -14.3745
   -14.2567 -14.2514  -0.6298   0.0215   4.3892   4.7084

          k = 0.6875 0.0625 0.8125 (  6913 PWs)   bands (ev):

   -14.6824 -14.6672 -14.5489 -14.4825 -14.4636 -14.4411 -14.4303 -14.3790
   -14.2572 -14.2423  -0.7616   0.1859   3.9464   4.9468

          k = 0.5625 0.1875 0.6875 (  6906 PWs)   bands (ev):

   -14.6782 -14.6631 -14.5612 -14.4983 -14.4870 -14.4217 -14.4039 -14.3725
   -14.2623 -14.2480  -1.3059   0.7184   4.1693   5.3957

          k = 0.4375 0.3125 0.5625 (  6921 PWs)   bands (ev):

   -14.6628 -14.6553 -14.5870 -14.5217 -14.5134 -14.3886 -14.3754 -14.3568
   -14.2722 -14.2649  -1.7157   1.0559   5.1172   5.8099

          k =-0.0625-0.9375 0.0625 (  6932 PWs)   bands (ev):

   -14.6676 -14.6653 -14.5624 -14.5349 -14.4572 -14.4322 -14.3934 -14.3656
   -14.2589 -14.2567  -0.6483   0.0195   4.6228   4.7554

          k =-0.1875-0.8125-0.0625 (  6919 PWs)   bands (ev):

   -14.6703 -14.6649 -14.5742 -14.4954 -14.4823 -14.4307 -14.4085 -14.3535
   -14.2606 -14.2551  -1.2018   0.6908   4.4936   4.8364

          k =-0.3125-0.6875-0.1875 (  6915 PWs)   bands (ev):

   -14.6732 -14.6599 -14.5763 -14.5059 -14.4794 -14.4383 -14.3882 -14.3556
   -14.2670 -14.2532  -1.5614   1.0859   4.4478   5.2861

          k =-0.0625-0.6875 0.0625 (  6925 PWs)   bands (ev):

   -14.6597 -14.6572 -14.6031 -14.5051 -14.4729 -14.4530 -14.3850 -14.3230
   -14.2708 -14.2680  -1.7776   1.5043   4.9466   5.0575

          k =-0.1875-0.5625-0.0625 (  6918 PWs)   bands (ev):

   -14.6583 -14.6533 -14.6040 -14.5250 -14.4873 -14.4333 -14.3668 -14.3254
   -14.2769 -14.2699  -2.1508   2.1140   4.9980   5.4607

          k =-0.0625-0.4375 0.0625 (  6915 PWs)   bands (ev):

   -14.6452 -14.6422 -14.6227 -14.5435 -14.5116 -14.4079 -14.3479 -14.3054
   -14.2924 -14.2853  -2.5919   3.1207   5.6715   5.7281

          k =-0.1875 0.1875 0.1875 (  6913 PWs)   bands (ev):

   -14.6382 -14.6382 -14.6161 -14.5514 -14.5514 -14.3507 -14.3507 -14.3275
   -14.2914 -14.2914  -2.8723   3.7851   6.5705   6.5705

          k =-0.3125 0.3125 0.0625 (  6908 PWs)   bands (ev):

   -14.6496 -14.6457 -14.6060 -14.5453 -14.5291 -14.3757 -14.3591 -14.3285
   -14.2888 -14.2766  -2.6033   3.0052   5.3876   6.5390

          k =-0.4375 0.4375-0.0625 (  6915 PWs)   bands (ev):

   -14.6627 -14.6583 -14.5824 -14.5316 -14.5057 -14.3966 -14.3699 -14.3582
   -14.2676 -14.2671  -2.0994   1.9244   4.5898   6.1204

          k = 0.4375-0.4375 0.8125 (  6925 PWs)   bands (ev):

   -14.6733 -14.6608 -14.5684 -14.5121 -14.4972 -14.4013 -14.3944 -14.3710
   -14.2647 -14.2539  -1.5348   0.9612   4.3634   5.6990

          k = 0.3125-0.3125 0.6875 (  6913 PWs)   bands (ev):

   -14.6731 -14.6580 -14.5766 -14.5068 -14.4939 -14.4203 -14.3882 -14.3578
   -14.2690 -14.2533  -1.5204   0.9384   4.5423   5.4620

          k = 0.1875-0.1875 0.5625 (  6923 PWs)   bands (ev):

   -14.6626 -14.6514 -14.5996 -14.5242 -14.4930 -14.4255 -14.3684 -14.3316
   -14.2787 -14.2651  -2.0810   1.9116   5.0284   5.4713

          k =-0.1875 0.4375 0.1875 (  6913 PWs)   bands (ev):

   -14.6541 -14.6452 -14.6082 -14.5386 -14.5165 -14.3971 -14.3556 -14.3268
   -14.2867 -14.2738  -2.4279   2.5491   5.5852   5.8111

          k =-0.3125 0.5625 0.0625 (  6921 PWs)   bands (ev):

   -14.6637 -14.6589 -14.5868 -14.5238 -14.4917 -14.4230 -14.3704 -14.3479
   -14.2689 -14.2642  -2.0018   1.8013   4.6286   5.6322

          k = 0.5625-0.3125 0.9375 (  6914 PWs)   bands (ev):

   -14.6769 -14.6664 -14.5582 -14.5034 -14.4724 -14.4393 -14.3963 -14.3751
   -14.2588 -14.2496  -1.4142   0.9447   4.0961   5.2431

          k = 0.4375-0.1875 0.8125 (  6902 PWs)   bands (ev):

   -14.6804 -14.6674 -14.5517 -14.4897 -14.4686 -14.4460 -14.4103 -14.3784
   -14.2578 -14.2450  -1.1122   0.5513   4.0582   5.0288

          k = 0.3125-0.0625 0.6875 (  6915 PWs)   bands (ev):

   -14.6708 -14.6645 -14.5740 -14.5055 -14.4679 -14.4512 -14.3884 -14.3571
   -14.2618 -14.2559  -1.5888   1.1956   4.3797   5.1489

          k =-0.1875 0.6875 0.1875 (  6918 PWs)   bands (ev):

   -14.6701 -14.6577 -14.5867 -14.5052 -14.4693 -14.4528 -14.3868 -14.3424
   -14.2698 -14.2565  -1.6598   1.2766   4.5810   5.2014

          k = 0.6875-0.1875 1.0625 (  6915 PWs)   bands (ev):

   -14.6757 -14.6693 -14.5573 -14.4840 -14.4800 -14.4420 -14.4104 -14.3712
   -14.2559 -14.2496  -1.1142   0.5964   4.2329   4.7774

          k = 0.5625-0.0625 0.9375 (  6889 PWs)   bands (ev):

   -14.6810 -14.6756 -14.5249 -14.4905 -14.4630 -14.4383 -14.4288 -14.3997
   -14.2488 -14.2435  -0.5824   0.0241   4.0602   4.4573

          k = 0.4375 0.0625 0.8125 (  6903 PWs)   bands (ev):

   -14.6802 -14.6716 -14.5427 -14.4840 -14.4662 -14.4502 -14.4164 -14.3854
   -14.2533 -14.2449  -0.9992   0.4670   4.0243   4.7796

          k =-0.1875-1.0625 0.1875 (  6912 PWs)   bands (ev):

   -14.6787 -14.6654 -14.5545 -14.5051 -14.4597 -14.4318 -14.4208 -14.3737
   -14.2588 -14.2458  -0.6759   0.0799   4.1132   4.9207

          k =-0.3125-0.9375 0.0625 (  6906 PWs)   bands (ev):

   -14.6781 -14.6722 -14.5383 -14.5053 -14.4600 -14.4342 -14.4190 -14.3885
   -14.2522 -14.2463  -0.6026   0.0235   4.1781   4.5653

          k =-0.1875-0.8125 0.1875 (  6918 PWs)   bands (ev):

   -14.6757 -14.6627 -14.5704 -14.4836 -14.4830 -14.4410 -14.4086 -14.3580
   -14.2627 -14.2496  -1.1770   0.6521   4.2710   5.0154

          k =-0.3125 0.3125 0.3125 (  6919 PWs)   bands (ev):

   -14.6480 -14.6480 -14.6073 -14.5339 -14.5339 -14.3659 -14.3659 -14.3381
   -14.2806 -14.2806  -2.3632   2.2057   6.1850   6.1850

          k =-0.4375 0.4375 0.1875 (  6924 PWs)   bands (ev):

   -14.6593 -14.6564 -14.5885 -14.5305 -14.5126 -14.3888 -14.3684 -14.3550
   -14.2707 -14.2696  -2.0436   1.6848   4.9712   6.0979

          k = 0.4375-0.4375 1.0625 (  6924 PWs)   bands (ev):

   -14.6774 -14.6631 -14.5604 -14.5084 -14.4849 -14.4140 -14.4026 -14.3748
   -14.2617 -14.2495  -1.5154   1.0496   4.0388   5.6555

          k = 0.3125-0.3125 0.9375 (  6911 PWs)   bands (ev):

   -14.6837 -14.6651 -14.5533 -14.4688 -14.4676 -14.4537 -14.4262 -14.3759
   -14.2593 -14.2414  -0.9780   0.4161   3.8537   5.2337

          k =-0.3125 0.5625 0.3125 (  6923 PWs)   bands (ev):

   -14.6641 -14.6530 -14.5904 -14.5223 -14.5092 -14.3998 -14.3731 -14.3482
   -14.2757 -14.2631  -1.8448   1.3144   5.1298   5.6733

          k = 0.5625-0.3125 1.1875 (  6906 PWs)   bands (ev):

   -14.6753 -14.6630 -14.5651 -14.5061 -14.4859 -14.4245 -14.3925 -14.3701
   -14.2630 -14.2511  -1.4349   0.8824   4.3028   5.3548

          k = 0.4375-0.1875 1.0625 (  6901 PWs)   bands (ev):

   -14.6828 -14.6703 -14.5410 -14.4760 -14.4634 -14.4522 -14.4265 -14.3862
   -14.2543 -14.2421  -0.8750   0.3222   3.9186   4.8579

          k =-0.3125-1.1875 0.3125 (  6905 PWs)   bands (ev):

   -14.6800 -14.6625 -14.5627 -14.4873 -14.4792 -14.4394 -14.4076 -14.3684
   -14.2629 -14.2456  -1.2024   0.6237   4.0963   5.3116

          k =-0.4375 0.4375 0.4375 (  6916 PWs)   bands (ev):

   -14.6524 -14.6524 -14.6007 -14.5253 -14.5253 -14.3727 -14.3727 -14.3459
   -14.2757 -14.2757  -1.8115   1.0897   5.9718   5.9718

          k = 0.4375-0.4375 1.3125 (  6922 PWs)   bands (ev):

   -14.6660 -14.6570 -14.5814 -14.5169 -14.5117 -14.3861 -14.3846 -14.3625
   -14.2697 -14.2617  -1.5875   0.8882   4.9083   5.7776

     highest occupied level (ev):     6.9675

!    total energy              =    -318.50231267 Ry
     Harris-Foulkes estimate   =    -318.50231266 Ry
     estimated scf accuracy    <          2.2E-09 Ry

     The total energy is the sum of the following terms:

     one-electron contribution =    -162.00748383 Ry
     hartree contribution      =      97.52398227 Ry
     xc contribution           =     -85.96271614 Ry
     ewald contribution        =    -168.05609497 Ry

     convergence has been achieved in   7 iterations


     Computing stress (Cartesian axis) and pressure

          total   stress  (Ry/bohr**3)                   (kbar)     P=   -0.97
  -0.00000658   0.00000000   0.00000000         -0.97      0.00      0.00
   0.00000000  -0.00000658  -0.00000000          0.00     -0.97     -0.00
   0.00000000  -0.00000000  -0.00000658          0.00     -0.00     -0.97


     Writing output data file sn.alpha.88.save

     init_run     :      3.03s CPU      3.13s WALL (       1 calls)
     electrons    :     52.25s CPU     53.42s WALL (       1 calls)
     stress       :      2.62s CPU      2.68s WALL (       1 calls)

     Called by init_run:
     wfcinit      :      2.29s CPU      2.34s WALL (       1 calls)
     potinit      :      0.14s CPU      0.15s WALL (       1 calls)

     Called by electrons:
     c_bands      :     40.92s CPU     41.54s WALL (       7 calls)
     sum_band     :      9.09s CPU      9.41s WALL (       7 calls)
     v_of_rho     :      0.87s CPU      0.90s WALL (       8 calls)
     newd         :      1.49s CPU      1.66s WALL (       8 calls)
     mix_rho      :      0.10s CPU      0.10s WALL (       7 calls)

     Called by c_bands:
     init_us_2    :      1.11s CPU      1.12s WALL (     960 calls)
     cegterg      :     39.09s CPU     39.69s WALL (     420 calls)

     Called by sum_band:
     sum_band:bec :      0.00s CPU      0.01s WALL (     420 calls)
     addusdens    :      1.62s CPU      1.84s WALL (       7 calls)

     Called by *egterg:
     h_psi        :     36.22s CPU     36.83s WALL (    1721 calls)
     s_psi        :      0.64s CPU      0.64s WALL (    1721 calls)
     g_psi        :      0.18s CPU      0.18s WALL (    1241 calls)
     cdiaghg      :      0.73s CPU      0.73s WALL (    1661 calls)

     Called by h_psi:
     h_psi:pot    :     35.87s CPU     36.49s WALL (    1721 calls)
     h_psi:calbec :      0.98s CPU      0.99s WALL (    1721 calls)
     vloc_psi     :     34.24s CPU     34.83s WALL (    1721 calls)
     add_vuspsi   :      0.66s CPU      0.67s WALL (    1721 calls)

     General routines
     calbec       :      1.30s CPU      1.31s WALL (    2201 calls)
     fft          :      0.62s CPU      0.65s WALL (     138 calls)
     ffts         :      0.02s CPU      0.02s WALL (      15 calls)
     fftw         :     27.60s CPU     28.09s WALL (   45480 calls)
     interpolate  :      0.10s CPU      0.11s WALL (      15 calls)
     davcio       :      0.00s CPU      0.02s WALL (      60 calls)

     Parallel routines
     fft_scatter  :      4.70s CPU      4.86s WALL (   45633 calls)

     PWSCF        :  0m58.07s CPU     1m 0.97s WALL


   This run was terminated on:  13: 5: 1  12Nov2017            

=------------------------------------------------------------------------------=
   JOB DONE.
=------------------------------------------------------------------------------=
