
     Program PWSCF v.6.1 (svn rev. 13369) starts on 11Nov2017 at 16:41: 0 

     This program is part of the open-source Quantum ESPRESSO suite
     for quantum simulation of materials; please cite
         "P. Giannozzi et al., J. Phys.:Condens. Matter 21 395502 (2009);
          URL http://www.quantum-espresso.org", 
     in publications or presentations arising from this work. More details at
     http://www.quantum-espresso.org/quote

     Parallel version (MPI), running on     4 processors
     R & G space division:  proc/nbgrp/npool/nimage =       4
     Waiting for input...
     Reading input from standard input
     Message from routine read_cards :
     DEPRECATED: no units specified in ATOMIC_POSITIONS card
     Message from routine read_cards :
     ATOMIC_POSITIONS: units set to alat

     Current dimensions of program PWSCF are:
     Max number of different atomic species (ntypx) = 10
     Max number of k-points (npk) =  40000
     Max angular momentum in pseudopotentials (lmaxx) =  3

     Subspace diagonalization in iterative solution of the eigenvalue problem:
     a serial algorithm will be used


     Parallelization info
     --------------------
     sticks:   dense  smooth     PW     G-vecs:    dense   smooth      PW
     Min         543     268     84                16737     5896    1003
     Max         544     269     85                16740     5899    1005
     Sum        2173    1075    337                66953    23589    4015



     bravais-lattice index     =            2
     lattice parameter (alat)  =      12.5720  a.u.
     unit-cell volume          =     496.7674 (a.u.)^3
     number of atoms/cell      =            2
     number of atomic types    =            1
     number of electrons       =        28.00
     number of Kohn-Sham states=           14
     kinetic-energy cutoff     =      50.0000  Ry
     charge density cutoff     =     400.0000  Ry
     convergence threshold     =      1.0E-08
     mixing beta               =       0.7000
     number of iterations used =            8  plain     mixing
     Exchange-correlation      =  SLA  PW   PBX  PBC ( 1  4  3  4 0 0)

     celldm(1)=  12.572000  celldm(2)=   0.000000  celldm(3)=   0.000000
     celldm(4)=   0.000000  celldm(5)=   0.000000  celldm(6)=   0.000000

     crystal axes: (cart. coord. in units of alat)
               a(1) = (  -0.500000   0.000000   0.500000 )  
               a(2) = (   0.000000   0.500000   0.500000 )  
               a(3) = (  -0.500000   0.500000   0.000000 )  

     reciprocal axes: (cart. coord. in units 2 pi/alat)
               b(1) = ( -1.000000 -1.000000  1.000000 )  
               b(2) = (  1.000000  1.000000  1.000000 )  
               b(3) = ( -1.000000  1.000000 -1.000000 )  


     PseudoPot. # 1 for Sn read from file:
     /home/s1333534/quantum_espresso/qe-6.1/pseudo/sn_pbe_v1.4.uspp.F.UPF
     MD5 check sum: 469debedee59599fedebd795477fea03
     Pseudo is Ultrasoft + core correction, Zval = 14.0
     Generated by new atomic code, or converted to UPF format
     Using radial grid of  891 points,  6 beta functions with: 
                l(1) =   0
                l(2) =   0
                l(3) =   1
                l(4) =   1
                l(5) =   2
                l(6) =   2
     Q(r) pseudized with  8 coefficients,  rinner =    1.350   1.350   1.350
                                                       1.350   1.350

     atomic species   valence    mass     pseudopotential
        Sn            14.00   118.71000     Sn( 1.00)

     48 Sym. Ops., with inversion, found (24 have fractional translation)



   Cartesian axes

     site n.     atom                  positions (alat units)
         1           Sn  tau(   1) = (   0.0000000   0.0000000   0.0000000  )
         2           Sn  tau(   2) = (   0.2500000   0.2500000   0.2500000  )

     number of k points=   182

     Number of k-points >= 100: set verbosity='high' to print them.

     Dense  grid:    66953 G-vectors     FFT dimensions: (  60,  60,  60)

     Smooth grid:    23589 G-vectors     FFT dimensions: (  45,  45,  45)

     Estimated max dynamical RAM per process >      41.07MB

     Estimated total allocated dynamical RAM >     164.30MB

     Initial potential from superposition of free atoms

     starting charge   25.99991, renormalised to   28.00000
     Starting wfc are   18 randomized atomic wfcs

     total cpu time spent up to now is        3.9 secs

     per-process dynamical memory:    46.1 Mb

     Self-consistent Calculation

     iteration #  1     ecut=    50.00 Ry     beta=0.70
     Davidson diagonalization with overlap
     ethr =  1.00E-02,  avg # of iterations =  2.6

     total cpu time spent up to now is       13.5 secs

     total energy              =    -317.48500516 Ry
     Harris-Foulkes estimate   =    -319.54897093 Ry
     estimated scf accuracy    <       2.51467384 Ry

     iteration #  2     ecut=    50.00 Ry     beta=0.70
     Davidson diagonalization with overlap
     ethr =  8.98E-03,  avg # of iterations =  3.0

     total cpu time spent up to now is       24.1 secs

     total energy              =    -318.39376869 Ry
     Harris-Foulkes estimate   =    -318.71200927 Ry
     estimated scf accuracy    <       0.47380057 Ry

     iteration #  3     ecut=    50.00 Ry     beta=0.70
     Davidson diagonalization with overlap
     ethr =  1.69E-03,  avg # of iterations =  2.0

     total cpu time spent up to now is       33.5 secs

     total energy              =    -318.48887683 Ry
     Harris-Foulkes estimate   =    -318.49044864 Ry
     estimated scf accuracy    <       0.00288063 Ry

     iteration #  4     ecut=    50.00 Ry     beta=0.70
     Davidson diagonalization with overlap
     ethr =  1.03E-05,  avg # of iterations =  3.0

     total cpu time spent up to now is       43.4 secs

     total energy              =    -318.48976589 Ry
     Harris-Foulkes estimate   =    -318.48988260 Ry
     estimated scf accuracy    <       0.00017294 Ry

     iteration #  5     ecut=    50.00 Ry     beta=0.70
     Davidson diagonalization with overlap
     ethr =  6.18E-07,  avg # of iterations =  3.0

     total cpu time spent up to now is       53.4 secs

     total energy              =    -318.48981878 Ry
     Harris-Foulkes estimate   =    -318.48981944 Ry
     estimated scf accuracy    <       0.00000141 Ry

     iteration #  6     ecut=    50.00 Ry     beta=0.70
     Davidson diagonalization with overlap
     ethr =  5.03E-09,  avg # of iterations =  4.0

     total cpu time spent up to now is       64.2 secs

     total energy              =    -318.48981954 Ry
     Harris-Foulkes estimate   =    -318.48981959 Ry
     estimated scf accuracy    <       0.00000008 Ry

     iteration #  7     ecut=    50.00 Ry     beta=0.70
     Davidson diagonalization with overlap
     ethr =  2.68E-10,  avg # of iterations =  3.1

     total cpu time spent up to now is       74.5 secs

     End of self-consistent calculation

     Number of k-points >= 100: set verbosity='high' to print the bands.

     highest occupied level (ev):     6.9876

!    total energy              =    -318.48981957 Ry
     Harris-Foulkes estimate   =    -318.48981957 Ry
     estimated scf accuracy    <          2.4E-09 Ry

     The total energy is the sum of the following terms:

     one-electron contribution =    -162.14738494 Ry
     hartree contribution      =      97.58260213 Ry
     xc contribution           =     -85.96251422 Ry
     ewald contribution        =    -167.96252253 Ry

     convergence has been achieved in   7 iterations

     Writing output data file sn.alpha.12.572.save

     init_run     :      3.71s CPU      3.81s WALL (       1 calls)
     electrons    :     68.95s CPU     70.66s WALL (       1 calls)

     Called by init_run:
     wfcinit      :      3.21s CPU      3.30s WALL (       1 calls)
     potinit      :      0.06s CPU      0.06s WALL (       1 calls)

     Called by electrons:
     c_bands      :     58.55s CPU     59.84s WALL (       7 calls)
     sum_band     :      9.58s CPU      9.87s WALL (       7 calls)
     v_of_rho     :      0.36s CPU      0.37s WALL (       8 calls)
     newd         :      0.50s CPU      0.59s WALL (       8 calls)
     mix_rho      :      0.03s CPU      0.03s WALL (       7 calls)

     Called by c_bands:
     init_us_2    :      1.07s CPU      1.09s WALL (    2730 calls)
     cegterg      :     56.41s CPU     57.66s WALL (    1274 calls)

     Called by sum_band:
     sum_band:bec :      0.01s CPU      0.01s WALL (    1274 calls)
     addusdens    :      0.53s CPU      0.63s WALL (       7 calls)

     Called by *egterg:
     h_psi        :     51.97s CPU     53.21s WALL (    5220 calls)
     s_psi        :      0.64s CPU      0.65s WALL (    5220 calls)
     g_psi        :      0.23s CPU      0.24s WALL (    3764 calls)
     cdiaghg      :      2.19s CPU      2.20s WALL (    5038 calls)

     Called by h_psi:
     h_psi:pot    :     51.69s CPU     52.92s WALL (    5220 calls)
     h_psi:calbec :      1.46s CPU      1.48s WALL (    5220 calls)
     vloc_psi     :     49.45s CPU     50.64s WALL (    5220 calls)
     add_vuspsi   :      0.78s CPU      0.78s WALL (    5220 calls)

     General routines
     calbec       :      1.80s CPU      1.82s WALL (    6494 calls)
     fft          :      0.16s CPU      0.16s WALL (     124 calls)
     ffts         :      0.01s CPU      0.01s WALL (      15 calls)
     fftw         :     48.35s CPU     49.53s WALL (  138332 calls)
     interpolate  :      0.04s CPU      0.04s WALL (      15 calls)
     davcio       :      0.00s CPU      0.01s WALL (     182 calls)

     Parallel routines
     fft_scatter  :      5.88s CPU      5.96s WALL (  138471 calls)

     PWSCF        :  1m12.96s CPU     1m18.23s WALL


   This run was terminated on:  16:42:18  11Nov2017            

=------------------------------------------------------------------------------=
   JOB DONE.
=------------------------------------------------------------------------------=
