
     Program PWSCF v.6.1 (svn rev. 13369) starts on 11Nov2017 at 15:31:43 

     This program is part of the open-source Quantum ESPRESSO suite
     for quantum simulation of materials; please cite
         "P. Giannozzi et al., J. Phys.:Condens. Matter 21 395502 (2009);
          URL http://www.quantum-espresso.org", 
     in publications or presentations arising from this work. More details at
     http://www.quantum-espresso.org/quote

     Parallel version (MPI), running on     4 processors
     R & G space division:  proc/nbgrp/npool/nimage =       4
     Waiting for input...
     Reading input from standard input
     Message from routine read_cards :
     DEPRECATED: no units specified in ATOMIC_POSITIONS card
     Message from routine read_cards :
     ATOMIC_POSITIONS: units set to alat

     Current dimensions of program PWSCF are:
     Max number of different atomic species (ntypx) = 10
     Max number of k-points (npk) =  40000
     Max angular momentum in pseudopotentials (lmaxx) =  3

     Subspace diagonalization in iterative solution of the eigenvalue problem:
     a serial algorithm will be used


     Parallelization info
     --------------------
     sticks:   dense  smooth     PW     G-vecs:    dense   smooth      PW
     Min         478     238     75                13841     4898     845
     Max         479     239     76                13844     4902     846
     Sum        1915     955    301                55369    19603    3383



     bravais-lattice index     =            2
     lattice parameter (alat)  =      11.8000  a.u.
     unit-cell volume          =     410.7580 (a.u.)^3
     number of atoms/cell      =            2
     number of atomic types    =            1
     number of electrons       =        28.00
     number of Kohn-Sham states=           14
     kinetic-energy cutoff     =      50.0000  Ry
     charge density cutoff     =     400.0000  Ry
     convergence threshold     =      1.0E-08
     mixing beta               =       0.7000
     number of iterations used =            8  plain     mixing
     Exchange-correlation      =  SLA  PW   PBX  PBC ( 1  4  3  4 0 0)

     celldm(1)=  11.800000  celldm(2)=   0.000000  celldm(3)=   0.000000
     celldm(4)=   0.000000  celldm(5)=   0.000000  celldm(6)=   0.000000

     crystal axes: (cart. coord. in units of alat)
               a(1) = (  -0.500000   0.000000   0.500000 )  
               a(2) = (   0.000000   0.500000   0.500000 )  
               a(3) = (  -0.500000   0.500000   0.000000 )  

     reciprocal axes: (cart. coord. in units 2 pi/alat)
               b(1) = ( -1.000000 -1.000000  1.000000 )  
               b(2) = (  1.000000  1.000000  1.000000 )  
               b(3) = ( -1.000000  1.000000 -1.000000 )  


     PseudoPot. # 1 for Sn read from file:
     /home/s1333534/quantum_espresso/qe-6.1/pseudo/sn_pbe_v1.4.uspp.F.UPF
     MD5 check sum: 469debedee59599fedebd795477fea03
     Pseudo is Ultrasoft + core correction, Zval = 14.0
     Generated by new atomic code, or converted to UPF format
     Using radial grid of  891 points,  6 beta functions with: 
                l(1) =   0
                l(2) =   0
                l(3) =   1
                l(4) =   1
                l(5) =   2
                l(6) =   2
     Q(r) pseudized with  8 coefficients,  rinner =    1.350   1.350   1.350
                                                       1.350   1.350

     atomic species   valence    mass     pseudopotential
        Sn            14.00   118.71000     Sn( 1.00)

     24 Sym. Ops. (no inversion) found
          (note: 24 additional sym.ops. were found but ignored
           their fractional translations are incommensurate with FFT grid)


   Cartesian axes

     site n.     atom                  positions (alat units)
         1           Sn  tau(   1) = (   0.0000000   0.0000000   0.0000000  )
         2           Sn  tau(   2) = (   0.2500000   0.2500000   0.2500000  )

     number of k points=    60
                       cart. coord. in units 2pi/alat
        k(    1) = (  -0.0625000   0.0625000   0.0625000), wk =   0.0078125
        k(    2) = (  -0.1875000   0.1875000  -0.0625000), wk =   0.0234375
        k(    3) = (  -0.3125000   0.3125000  -0.1875000), wk =   0.0234375
        k(    4) = (  -0.4375000   0.4375000  -0.3125000), wk =   0.0234375
        k(    5) = (   0.4375000  -0.4375000   0.5625000), wk =   0.0234375
        k(    6) = (   0.3125000  -0.3125000   0.4375000), wk =   0.0234375
        k(    7) = (   0.1875000  -0.1875000   0.3125000), wk =   0.0234375
        k(    8) = (   0.0625000  -0.0625000   0.1875000), wk =   0.0234375
        k(    9) = (  -0.0625000   0.3125000   0.0625000), wk =   0.0234375
        k(   10) = (  -0.1875000   0.4375000  -0.0625000), wk =   0.0468750
        k(   11) = (  -0.3125000   0.5625000  -0.1875000), wk =   0.0468750
        k(   12) = (   0.5625000  -0.3125000   0.6875000), wk =   0.0468750
        k(   13) = (   0.4375000  -0.1875000   0.5625000), wk =   0.0468750
        k(   14) = (   0.3125000  -0.0625000   0.4375000), wk =   0.0468750
        k(   15) = (   0.1875000   0.0625000   0.3125000), wk =   0.0468750
        k(   16) = (  -0.0625000   0.5625000   0.0625000), wk =   0.0234375
        k(   17) = (  -0.1875000   0.6875000  -0.0625000), wk =   0.0468750
        k(   18) = (   0.6875000  -0.1875000   0.8125000), wk =   0.0468750
        k(   19) = (   0.5625000  -0.0625000   0.6875000), wk =   0.0468750
        k(   20) = (   0.4375000   0.0625000   0.5625000), wk =   0.0468750
        k(   21) = (   0.3125000   0.1875000   0.4375000), wk =   0.0468750
        k(   22) = (  -0.0625000   0.8125000   0.0625000), wk =   0.0234375
        k(   23) = (   0.8125000  -0.0625000   0.9375000), wk =   0.0468750
        k(   24) = (   0.6875000   0.0625000   0.8125000), wk =   0.0468750
        k(   25) = (   0.5625000   0.1875000   0.6875000), wk =   0.0468750
        k(   26) = (   0.4375000   0.3125000   0.5625000), wk =   0.0468750
        k(   27) = (  -0.0625000  -0.9375000   0.0625000), wk =   0.0234375
        k(   28) = (  -0.1875000  -0.8125000  -0.0625000), wk =   0.0468750
        k(   29) = (  -0.3125000  -0.6875000  -0.1875000), wk =   0.0468750
        k(   30) = (  -0.0625000  -0.6875000   0.0625000), wk =   0.0234375
        k(   31) = (  -0.1875000  -0.5625000  -0.0625000), wk =   0.0468750
        k(   32) = (  -0.0625000  -0.4375000   0.0625000), wk =   0.0234375
        k(   33) = (  -0.1875000   0.1875000   0.1875000), wk =   0.0078125
        k(   34) = (  -0.3125000   0.3125000   0.0625000), wk =   0.0234375
        k(   35) = (  -0.4375000   0.4375000  -0.0625000), wk =   0.0234375
        k(   36) = (   0.4375000  -0.4375000   0.8125000), wk =   0.0234375
        k(   37) = (   0.3125000  -0.3125000   0.6875000), wk =   0.0234375
        k(   38) = (   0.1875000  -0.1875000   0.5625000), wk =   0.0234375
        k(   39) = (  -0.1875000   0.4375000   0.1875000), wk =   0.0234375
        k(   40) = (  -0.3125000   0.5625000   0.0625000), wk =   0.0468750
        k(   41) = (   0.5625000  -0.3125000   0.9375000), wk =   0.0468750
        k(   42) = (   0.4375000  -0.1875000   0.8125000), wk =   0.0468750
        k(   43) = (   0.3125000  -0.0625000   0.6875000), wk =   0.0468750
        k(   44) = (  -0.1875000   0.6875000   0.1875000), wk =   0.0234375
        k(   45) = (   0.6875000  -0.1875000   1.0625000), wk =   0.0468750
        k(   46) = (   0.5625000  -0.0625000   0.9375000), wk =   0.0468750
        k(   47) = (   0.4375000   0.0625000   0.8125000), wk =   0.0468750
        k(   48) = (  -0.1875000  -1.0625000   0.1875000), wk =   0.0234375
        k(   49) = (  -0.3125000  -0.9375000   0.0625000), wk =   0.0468750
        k(   50) = (  -0.1875000  -0.8125000   0.1875000), wk =   0.0234375
        k(   51) = (  -0.3125000   0.3125000   0.3125000), wk =   0.0078125
        k(   52) = (  -0.4375000   0.4375000   0.1875000), wk =   0.0234375
        k(   53) = (   0.4375000  -0.4375000   1.0625000), wk =   0.0234375
        k(   54) = (   0.3125000  -0.3125000   0.9375000), wk =   0.0234375
        k(   55) = (  -0.3125000   0.5625000   0.3125000), wk =   0.0234375
        k(   56) = (   0.5625000  -0.3125000   1.1875000), wk =   0.0468750
        k(   57) = (   0.4375000  -0.1875000   1.0625000), wk =   0.0468750
        k(   58) = (  -0.3125000  -1.1875000   0.3125000), wk =   0.0234375
        k(   59) = (  -0.4375000   0.4375000   0.4375000), wk =   0.0078125
        k(   60) = (   0.4375000  -0.4375000   1.3125000), wk =   0.0234375

     Dense  grid:    55369 G-vectors     FFT dimensions: (  54,  54,  54)

     Smooth grid:    19603 G-vectors     FFT dimensions: (  40,  40,  40)

     Estimated max dynamical RAM per process >      17.76MB

     Estimated total allocated dynamical RAM >      71.02MB

     Initial potential from superposition of free atoms

     starting charge   25.99991, renormalised to   28.00000
     Starting wfc are   18 randomized atomic wfcs

     total cpu time spent up to now is        1.2 secs

     per-process dynamical memory:    22.4 Mb

     Self-consistent Calculation

     iteration #  1     ecut=    50.00 Ry     beta=0.70
     Davidson diagonalization with overlap
     ethr =  1.00E-02,  avg # of iterations =  3.0

     total cpu time spent up to now is        3.4 secs

     total energy              =    -317.48423128 Ry
     Harris-Foulkes estimate   =    -319.48660739 Ry
     estimated scf accuracy    <       2.44196832 Ry

     iteration #  2     ecut=    50.00 Ry     beta=0.70
     Davidson diagonalization with overlap
     ethr =  8.72E-03,  avg # of iterations =  3.0

     total cpu time spent up to now is        5.8 secs

     total energy              =    -318.36958272 Ry
     Harris-Foulkes estimate   =    -318.68274591 Ry
     estimated scf accuracy    <       0.46930001 Ry

     iteration #  3     ecut=    50.00 Ry     beta=0.70
     Davidson diagonalization with overlap
     ethr =  1.68E-03,  avg # of iterations =  2.0

     total cpu time spent up to now is        7.9 secs

     total energy              =    -318.46291154 Ry
     Harris-Foulkes estimate   =    -318.46446371 Ry
     estimated scf accuracy    <       0.00285052 Ry

     iteration #  4     ecut=    50.00 Ry     beta=0.70
     Davidson diagonalization with overlap
     ethr =  1.02E-05,  avg # of iterations =  3.1

     total cpu time spent up to now is       10.2 secs

     total energy              =    -318.46381904 Ry
     Harris-Foulkes estimate   =    -318.46393692 Ry
     estimated scf accuracy    <       0.00017684 Ry

     iteration #  5     ecut=    50.00 Ry     beta=0.70
     Davidson diagonalization with overlap
     ethr =  6.32E-07,  avg # of iterations =  2.9

     total cpu time spent up to now is       12.5 secs

     total energy              =    -318.46387181 Ry
     Harris-Foulkes estimate   =    -318.46387223 Ry
     estimated scf accuracy    <       0.00000110 Ry

     iteration #  6     ecut=    50.00 Ry     beta=0.70
     Davidson diagonalization with overlap
     ethr =  3.93E-09,  avg # of iterations =  3.9

     total cpu time spent up to now is       15.1 secs

     total energy              =    -318.46387251 Ry
     Harris-Foulkes estimate   =    -318.46387258 Ry
     estimated scf accuracy    <       0.00000011 Ry

     iteration #  7     ecut=    50.00 Ry     beta=0.70
     Davidson diagonalization with overlap
     ethr =  3.94E-10,  avg # of iterations =  2.9

     total cpu time spent up to now is       17.3 secs

     End of self-consistent calculation

          k =-0.0625 0.0625 0.0625 (  2436 PWs)   bands (ev):

   -12.5683 -12.5683 -12.5625 -12.4800 -12.4800 -12.0774 -12.0774 -12.0702
   -12.0351 -12.0351  -1.9750   8.5181   9.4099   9.4099

          k =-0.1875 0.1875-0.0625 (  2468 PWs)   bands (ev):

   -12.5893 -12.5795 -12.5583 -12.4617 -12.4498 -12.1144 -12.1010 -12.0605
   -12.0324 -12.0077  -1.7492   6.9208   8.5154   9.2414

          k =-0.3125 0.3125-0.1875 (  2468 PWs)   bands (ev):

   -12.6074 -12.6010 -12.5411 -12.4321 -12.4147 -12.1430 -12.1243 -12.0866
   -12.0060 -11.9897  -1.2063   4.8934   7.9532   8.6987

          k =-0.4375 0.4375-0.3125 (  2451 PWs)   bands (ev):

   -12.6146 -12.6144 -12.5244 -12.4110 -12.3977 -12.1518 -12.1353 -12.1156
   -11.9875 -11.9828  -0.4662   3.2381   7.6863   8.2451

          k = 0.4375-0.4375 0.5625 (  2456 PWs)   bands (ev):

   -12.6200 -12.6131 -12.5206 -12.4004 -12.3994 -12.1493 -12.1436 -12.1218
   -11.9862 -11.9792  -0.1194   2.6570   7.7072   8.0222

          k = 0.3125-0.3125 0.4375 (  2456 PWs)   bands (ev):

   -12.6166 -12.6062 -12.5317 -12.4155 -12.4007 -12.1592 -12.1274 -12.1028
   -11.9965 -11.9817  -0.7155   3.7186   7.9953   8.0746

          k = 0.1875-0.1875 0.3125 (  2471 PWs)   bands (ev):

   -12.6026 -12.5928 -12.5501 -12.4420 -12.4228 -12.1464 -12.1041 -12.0790
   -12.0140 -11.9956  -1.4185   5.5511   8.4027   8.4964

          k = 0.0625-0.0625 0.1875 (  2478 PWs)   bands (ev):

   -12.5793 -12.5737 -12.5646 -12.4731 -12.4589 -12.1143 -12.0736 -12.0641
   -12.0397 -12.0173  -1.8615   7.6329   8.9405   9.0296

          k =-0.0625 0.3125 0.0625 (  2465 PWs)   bands (ev):

   -12.5900 -12.5826 -12.5686 -12.4578 -12.4229 -12.1610 -12.0761 -12.0499
   -12.0367 -12.0063  -1.6351   6.6619   8.3548   8.3685

          k =-0.1875 0.4375-0.0625 (  2464 PWs)   bands (ev):

   -12.6111 -12.6009 -12.5487 -12.4306 -12.3829 -12.2038 -12.1050 -12.0625
   -12.0117 -11.9873  -1.1932   5.2640   7.3754   8.0985

          k =-0.3125 0.5625-0.1875 (  2456 PWs)   bands (ev):

   -12.6336 -12.6151 -12.5130 -12.4011 -12.3599 -12.2200 -12.1365 -12.1056
   -11.9864 -11.9643  -0.4903   3.6598   6.8238   7.7025

          k = 0.5625-0.3125 0.6875 (  2450 PWs)   bands (ev):

   -12.6436 -12.6223 -12.4881 -12.3788 -12.3657 -12.2017 -12.1673 -12.1355
   -11.9740 -11.9532   0.1116   2.6589   6.5311   7.6107

          k = 0.4375-0.1875 0.5625 (  2450 PWs)   bands (ev):

   -12.6375 -12.6232 -12.4923 -12.3982 -12.3624 -12.1992 -12.1457 -12.1398
   -11.9729 -11.9613  -0.2457   3.2233   6.5006   7.8818

          k = 0.3125-0.0625 0.4375 (  2456 PWs)   bands (ev):

   -12.6187 -12.6135 -12.5235 -12.4248 -12.3819 -12.1893 -12.1260 -12.0912
   -11.9951 -11.9767  -0.9865   4.6986   6.8652   8.3878

          k = 0.1875 0.0625 0.3125 (  2464 PWs)   bands (ev):

   -12.6003 -12.5890 -12.5541 -12.4497 -12.4216 -12.1539 -12.0994 -12.0585
   -12.0275 -11.9959  -1.5257   6.1002   7.9322   8.7741

          k =-0.0625 0.5625 0.0625 (  2456 PWs)   bands (ev):

   -12.6121 -12.6067 -12.5589 -12.4042 -12.3310 -12.2691 -12.1240 -12.0400
   -12.0005 -11.9917  -0.8522   4.6892   7.2257   7.3344

          k =-0.1875 0.6875-0.0625 (  2440 PWs)   bands (ev):

   -12.6324 -12.6227 -12.5191 -12.3684 -12.3109 -12.2898 -12.1610 -12.0849
   -11.9755 -11.9646  -0.2182   3.5692   6.5140   7.0054

          k = 0.6875-0.1875 0.8125 (  2449 PWs)   bands (ev):

   -12.6563 -12.6307 -12.4697 -12.3351 -12.3130 -12.2814 -12.2022 -12.1383
   -11.9625 -11.9373   0.5143   2.5519   5.7947   6.9676

          k = 0.5625-0.0625 0.6875 (  2455 PWs)   bands (ev):

   -12.6606 -12.6336 -12.4549 -12.3454 -12.3111 -12.2573 -12.2191 -12.1535
   -11.9584 -11.9342   0.4436   2.6430   5.5130   7.2916

          k = 0.4375 0.0625 0.5625 (  2445 PWs)   bands (ev):

   -12.6421 -12.6282 -12.4810 -12.3970 -12.3442 -12.2191 -12.1546 -12.1426
   -11.9653 -11.9575  -0.2920   3.5332   6.0097   7.8494

          k = 0.3125 0.1875 0.4375 (  2458 PWs)   bands (ev):

   -12.6190 -12.6078 -12.5287 -12.4214 -12.3911 -12.1768 -12.1240 -12.0951
   -11.9978 -11.9786  -0.8940   4.2559   7.4025   8.2726

          k =-0.0625 0.8125 0.0625 (  2446 PWs)   bands (ev):

   -12.6303 -12.6258 -12.5114 -12.3791 -12.3275 -12.2294 -12.1988 -12.0929
   -11.9676 -11.9635   0.3449   2.7851   6.5564   6.7223

          k = 0.8125-0.0625 0.9375 (  2449 PWs)   bands (ev):

   -12.6444 -12.6347 -12.4584 -12.4083 -12.2864 -12.2423 -12.1980 -12.1484
   -11.9564 -11.9468   1.1142   1.9080   6.1103   6.5277

          k = 0.6875 0.0625 0.8125 (  2450 PWs)   bands (ev):

   -12.6614 -12.6348 -12.4503 -12.3379 -12.2968 -12.2613 -12.2395 -12.1559
   -11.9562 -11.9308   0.9868   2.0820   5.5390   6.8281

          k = 0.5625 0.1875 0.6875 (  2448 PWs)   bands (ev):

   -12.6547 -12.6291 -12.4679 -12.3590 -12.3381 -12.2330 -12.1952 -12.1461
   -11.9642 -11.9406   0.3316   2.6051   5.9086   7.3971

          k = 0.4375 0.3125 0.5625 (  2451 PWs)   bands (ev):

   -12.6291 -12.6162 -12.5086 -12.3996 -12.3847 -12.1717 -12.1438 -12.1274
   -11.9823 -11.9693  -0.1746   2.8730   7.1803   7.9363

          k =-0.0625-0.9375 0.0625 (  2462 PWs)   bands (ev):

   -12.6345 -12.6302 -12.4747 -12.4294 -12.2850 -12.2414 -12.1801 -12.1334
   -11.9608 -11.9566   1.0822   1.9015   6.4206   6.5968

          k =-0.1875-0.8125-0.0625 (  2448 PWs)   bands (ev):

   -12.6403 -12.6305 -12.4922 -12.3620 -12.3289 -12.2428 -12.2002 -12.1131
   -11.9630 -11.9533   0.4101   2.7240   6.2477   6.6858

          k =-0.3125-0.6875-0.1875 (  2447 PWs)   bands (ev):

   -12.6466 -12.6233 -12.4930 -12.3709 -12.3261 -12.2623 -12.1655 -12.1192
   -11.9736 -11.9491  -0.0106   3.0959   6.2555   7.2548

          k =-0.0625-0.6875 0.0625 (  2440 PWs)   bands (ev):

   -12.6223 -12.6176 -12.5397 -12.3678 -12.3249 -12.2802 -12.1589 -12.0604
   -11.9819 -11.9759  -0.3027   3.7202   6.8261   6.9703

          k =-0.1875-0.5625-0.0625 (  2451 PWs)   bands (ev):

   -12.6221 -12.6125 -12.5378 -12.4032 -12.3382 -12.2566 -12.1278 -12.0685
   -11.9925 -11.9775  -0.7555   4.4198   6.8953   7.4844

          k =-0.0625-0.4375 0.0625 (  2468 PWs)   bands (ev):

   -12.6009 -12.5944 -12.5684 -12.4346 -12.3797 -12.2136 -12.0952 -12.0372
   -12.0207 -12.0019  -1.2978   5.6749   7.7466   7.8030

          k =-0.1875 0.1875 0.1875 (  2469 PWs)   bands (ev):

   -12.5898 -12.5898 -12.5538 -12.4483 -12.4483 -12.1090 -12.1090 -12.0823
   -12.0113 -12.0113  -1.6385   6.2874   8.8905   8.8905

          k =-0.3125 0.3125 0.0625 (  2465 PWs)   bands (ev):

   -12.6095 -12.6008 -12.5383 -12.4386 -12.4094 -12.1521 -12.1275 -12.0713
   -12.0139 -11.9854  -1.3083   5.4050   7.3824   8.8713

          k =-0.4375 0.4375-0.0625 (  2455 PWs)   bands (ev):

   -12.6288 -12.6230 -12.4998 -12.4162 -12.3689 -12.1866 -12.1485 -12.1186
   -11.9760 -11.9704  -0.6830   4.1086   6.3894   8.3318

          k = 0.4375-0.4375 0.8125 (  2450 PWs)   bands (ev):

   -12.6465 -12.6259 -12.4786 -12.3831 -12.3555 -12.1911 -12.1868 -12.1436
   -11.9678 -11.9513   0.0426   2.8598   6.1752   7.7923

          k = 0.3125-0.3125 0.6875 (  2454 PWs)   bands (ev):

   -12.6467 -12.6200 -12.4933 -12.3726 -12.3514 -12.2309 -12.1659 -12.1234
   -11.9769 -11.9497   0.0582   2.8326   6.4208   7.4870

          k = 0.1875-0.1875 0.5625 (  2450 PWs)   bands (ev):

   -12.6296 -12.6089 -12.5304 -12.4019 -12.3484 -12.2421 -12.1309 -12.0792
   -11.9954 -11.9688  -0.6650   4.1034   6.9986   7.4896

          k =-0.1875 0.4375 0.1875 (  2463 PWs)   bands (ev):

   -12.6161 -12.5996 -12.5432 -12.4269 -12.3883 -12.1928 -12.1100 -12.0746
   -12.0092 -11.9825  -1.0922   4.8212   7.7356   7.9156

          k =-0.3125 0.5625 0.0625 (  2453 PWs)   bands (ev):

   -12.6309 -12.6231 -12.5083 -12.4021 -12.3456 -12.2372 -12.1349 -12.1085
   -11.9774 -11.9674  -0.5659   3.9999   6.4352   7.7064

          k = 0.5625-0.3125 0.9375 (  2449 PWs)   bands (ev):

   -12.6522 -12.6352 -12.4624 -12.3677 -12.3121 -12.2634 -12.1830 -12.1509
   -11.9579 -11.9438   0.1723   2.9770   5.7573   7.1950

          k = 0.4375-0.1875 0.8125 (  2448 PWs)   bands (ev):

   -12.6583 -12.6362 -12.4525 -12.3443 -12.3071 -12.2743 -12.2058 -12.1555
   -11.9570 -11.9354   0.5630   2.4718   5.7314   6.9148

          k = 0.3125-0.0625 0.6875 (  2444 PWs)   bands (ev):

   -12.6420 -12.6316 -12.4888 -12.3702 -12.3056 -12.2851 -12.1656 -12.1217
   -11.9640 -11.9544  -0.0555   3.3029   6.1159   7.0739

          k =-0.1875 0.6875 0.1875 (  2453 PWs)   bands (ev):

   -12.6414 -12.6189 -12.5111 -12.3689 -12.3108 -12.2868 -12.1624 -12.0960
   -11.9796 -11.9551  -0.1454   3.3834   6.3908   7.1534

          k = 0.6875-0.1875 1.0625 (  2450 PWs)   bands (ev):

   -12.6500 -12.6392 -12.4625 -12.3364 -12.3310 -12.2616 -12.2044 -12.1437
   -11.9540 -11.9435   0.5308   2.6019   5.9176   6.5944

          k = 0.5625-0.0625 0.9375 (  2454 PWs)   bands (ev):

   -12.6591 -12.6501 -12.4088 -12.3512 -12.2978 -12.2553 -12.2383 -12.1900
   -11.9416 -11.9327   1.1994   1.9176   5.6802   6.1808

          k = 0.4375 0.0625 0.8125 (  2449 PWs)   bands (ev):

   -12.6577 -12.6435 -12.4375 -12.3344 -12.3095 -12.2749 -12.2171 -12.1668
   -11.9489 -11.9354   0.6873   2.4325   5.6512   6.5927

          k =-0.1875-1.0625 0.1875 (  2451 PWs)   bands (ev):

   -12.6547 -12.6311 -12.4604 -12.3769 -12.2894 -12.2412 -12.2272 -12.1470
   -11.9598 -11.9369   1.0752   1.9656   5.7511   6.8048

          k =-0.3125-0.9375 0.0625 (  2444 PWs)   bands (ev):

   -12.6538 -12.6435 -12.4319 -12.3770 -12.2909 -12.2462 -12.2230 -12.1717
   -11.9477 -11.9376   1.1626   1.9148   5.8331   6.3294

          k =-0.1875-0.8125 0.1875 (  2440 PWs)   bands (ev):

   -12.6501 -12.6267 -12.4854 -12.3412 -12.3301 -12.2605 -12.2004 -12.1210
   -11.9663 -11.9433   0.4513   2.6562   5.9665   6.9222

          k =-0.3125 0.3125 0.3125 (  2460 PWs)   bands (ev):

   -12.6052 -12.6052 -12.5408 -12.4192 -12.4192 -12.1312 -12.1312 -12.1000
   -11.9951 -11.9951  -1.0059   4.2847   8.4091   8.4091

          k =-0.4375 0.4375 0.1875 (  2459 PWs)   bands (ev):

   -12.6232 -12.6195 -12.5102 -12.4146 -12.3819 -12.1716 -12.1405 -12.1192
   -11.9811 -11.9755  -0.6068   3.7092   6.9472   8.3053

          k = 0.4375-0.4375 1.0625 (  2449 PWs)   bands (ev):

   -12.6534 -12.6296 -12.4660 -12.3767 -12.3329 -12.2144 -12.2028 -12.1479
   -11.9621 -11.9438   0.0518   3.0738   5.6889   7.7357

          k = 0.3125-0.3125 0.9375 (  2450 PWs)   bands (ev):

   -12.6639 -12.6318 -12.4568 -12.3078 -12.3050 -12.2883 -12.2331 -12.1506
   -11.9594 -11.9293   0.7281   2.3368   5.4306   7.1998

          k =-0.3125 0.5625 0.3125 (  2451 PWs)   bands (ev):

   -12.6319 -12.6118 -12.5145 -12.3997 -12.3770 -12.1945 -12.1395 -12.1097
   -11.9893 -11.9658  -0.3510   3.2313   7.2014   7.7541

          k = 0.5625-0.3125 1.1875 (  2447 PWs)   bands (ev):

   -12.6499 -12.6291 -12.4736 -12.3724 -12.3363 -12.2373 -12.1750 -12.1436
   -11.9657 -11.9460   0.1616   2.8096   6.0868   7.3375

          k = 0.4375-0.1875 1.0625 (  2448 PWs)   bands (ev):

   -12.6622 -12.6410 -12.4356 -12.3216 -12.3034 -12.2782 -12.2346 -12.1674
   -11.9507 -11.9302   0.8501   2.2468   5.5101   6.7003

          k =-0.3125-1.1875 0.3125 (  2442 PWs)   bands (ev):

   -12.6578 -12.6274 -12.4714 -12.3381 -12.3268 -12.2635 -12.1999 -12.1392
   -11.9656 -11.9364   0.4550   2.5258   5.7912   7.2976

          k =-0.4375 0.4375 0.4375 (  2464 PWs)   bands (ev):

   -12.6113 -12.6113 -12.5311 -12.4062 -12.4062 -12.1397 -12.1397 -12.1135
   -11.9887 -11.9887  -0.2889   2.8607   8.1471   8.1471

          k = 0.4375-0.4375 1.3125 (  2450 PWs)   bands (ev):

   -12.6343 -12.6189 -12.4996 -12.3917 -12.3819 -12.1655 -12.1631 -12.1347
   -11.9773 -11.9645  -0.0049   2.6684   6.9168   7.8948

     highest occupied level (ev):     9.4099

!    total energy              =    -318.46387253 Ry
     Harris-Foulkes estimate   =    -318.46387253 Ry
     estimated scf accuracy    <          1.2E-09 Ry

     The total energy is the sum of the following terms:

     one-electron contribution =    -144.30051502 Ry
     hartree contribution      =      90.94611393 Ry
     xc contribution           =     -86.15821438 Ry
     ewald contribution        =    -178.95125706 Ry

     convergence has been achieved in   7 iterations

     Writing output data file sn.alpha.11.8.save

     init_run     :      1.08s CPU      1.12s WALL (       1 calls)
     electrons    :     15.56s CPU     16.15s WALL (       1 calls)

     Called by init_run:
     wfcinit      :      0.67s CPU      0.70s WALL (       1 calls)
     potinit      :      0.04s CPU      0.05s WALL (       1 calls)

     Called by electrons:
     c_bands      :     12.62s CPU     12.97s WALL (       7 calls)
     sum_band     :      2.28s CPU      2.42s WALL (       7 calls)
     v_of_rho     :      0.26s CPU      0.27s WALL (       8 calls)
     newd         :      0.43s CPU      0.51s WALL (       8 calls)
     mix_rho      :      0.02s CPU      0.02s WALL (       7 calls)

     Called by c_bands:
     init_us_2    :      0.30s CPU      0.31s WALL (     900 calls)
     cegterg      :     12.03s CPU     12.37s WALL (     420 calls)

     Called by sum_band:
     sum_band:bec :      0.00s CPU      0.00s WALL (     420 calls)
     addusdens    :      0.43s CPU      0.52s WALL (       7 calls)

     Called by *egterg:
     h_psi        :     10.44s CPU     10.77s WALL (    1725 calls)
     s_psi        :      0.18s CPU      0.18s WALL (    1725 calls)
     g_psi        :      0.06s CPU      0.07s WALL (    1245 calls)
     cdiaghg      :      0.74s CPU      0.74s WALL (    1665 calls)

     Called by h_psi:
     h_psi:pot    :     10.36s CPU     10.68s WALL (    1725 calls)
     h_psi:calbec :      0.38s CPU      0.39s WALL (    1725 calls)
     vloc_psi     :      9.75s CPU     10.05s WALL (    1725 calls)
     add_vuspsi   :      0.23s CPU      0.23s WALL (    1725 calls)

     General routines
     calbec       :      0.47s CPU      0.48s WALL (    2145 calls)
     fft          :      0.11s CPU      0.12s WALL (     124 calls)
     ffts         :      0.01s CPU      0.01s WALL (      15 calls)
     fftw         :      9.67s CPU      9.89s WALL (   45738 calls)
     interpolate  :      0.02s CPU      0.03s WALL (      15 calls)
     davcio       :      0.00s CPU      0.00s WALL (      60 calls)

     Parallel routines
     fft_scatter  :      1.50s CPU      1.53s WALL (   45877 calls)

     PWSCF        :    16.79s CPU        18.44s WALL


   This run was terminated on:  15:32: 1  11Nov2017            

=------------------------------------------------------------------------------=
   JOB DONE.
=------------------------------------------------------------------------------=
