
     Program PWSCF v.6.1 (svn rev. 13369) starts on 23Nov2017 at  1:33:36 

     This program is part of the open-source Quantum ESPRESSO suite
     for quantum simulation of materials; please cite
         "P. Giannozzi et al., J. Phys.:Condens. Matter 21 395502 (2009);
          URL http://www.quantum-espresso.org", 
     in publications or presentations arising from this work. More details at
     http://www.quantum-espresso.org/quote

     Parallel version (MPI), running on     4 processors
     R & G space division:  proc/nbgrp/npool/nimage =       4
     Waiting for input...
     Reading input from standard input
     Message from routine read_cards :
     DEPRECATED: no units specified in ATOMIC_POSITIONS card
     Message from routine read_cards :
     ATOMIC_POSITIONS: units set to alat

     Current dimensions of program PWSCF are:
     Max number of different atomic species (ntypx) = 10
     Max number of k-points (npk) =  40000
     Max angular momentum in pseudopotentials (lmaxx) =  3

     Subspace diagonalization in iterative solution of the eigenvalue problem:
     a serial algorithm will be used


     Parallelization info
     --------------------
     sticks:   dense  smooth     PW     G-vecs:    dense   smooth      PW
     Min         513     256     78                15380     5397     929
     Max         514     257     79                15385     5400     931
     Sum        2053    1027    313                61527    21595    3719



     bravais-lattice index     =            2
     lattice parameter (alat)  =      12.2000  a.u.
     unit-cell volume          =     453.9620 (a.u.)^3
     number of atoms/cell      =            2
     number of atomic types    =            1
     number of electrons       =        28.00
     number of Kohn-Sham states=           14
     kinetic-energy cutoff     =      50.0000  Ry
     charge density cutoff     =     400.0000  Ry
     convergence threshold     =      1.0E-08
     mixing beta               =       0.7000
     number of iterations used =            8  plain     mixing
     Exchange-correlation      =  SLA  PW   PBX  PBC ( 1  4  3  4 0 0)

     celldm(1)=  12.200000  celldm(2)=   0.000000  celldm(3)=   0.000000
     celldm(4)=   0.000000  celldm(5)=   0.000000  celldm(6)=   0.000000

     crystal axes: (cart. coord. in units of alat)
               a(1) = (  -0.500000   0.000000   0.500000 )  
               a(2) = (   0.000000   0.500000   0.500000 )  
               a(3) = (  -0.500000   0.500000   0.000000 )  

     reciprocal axes: (cart. coord. in units 2 pi/alat)
               b(1) = ( -1.000000 -1.000000  1.000000 )  
               b(2) = (  1.000000  1.000000  1.000000 )  
               b(3) = ( -1.000000  1.000000 -1.000000 )  


     PseudoPot. # 1 for Sn read from file:
     /home/s1333534/quantum_espresso/qe-6.1/pseudo/sn_pbe_v1.4.uspp.F.UPF
     MD5 check sum: 469debedee59599fedebd795477fea03
     Pseudo is Ultrasoft + core correction, Zval = 14.0
     Generated by new atomic code, or converted to UPF format
     Using radial grid of  891 points,  6 beta functions with: 
                l(1) =   0
                l(2) =   0
                l(3) =   1
                l(4) =   1
                l(5) =   2
                l(6) =   2
     Q(r) pseudized with  8 coefficients,  rinner =    1.350   1.350   1.350
                                                       1.350   1.350

     atomic species   valence    mass     pseudopotential
        Sn            14.00   118.71000     Sn( 1.00)

     48 Sym. Ops., with inversion, found (24 have fractional translation)



   Cartesian axes

     site n.     atom                  positions (alat units)
         1           Sn  tau(   1) = (   0.0000000   0.0000000   0.0000000  )
         2           Sn  tau(   2) = (   0.2500000   0.2500000   0.2500000  )

     number of k points=   182

     Number of k-points >= 100: set verbosity='high' to print them.

     Dense  grid:    61527 G-vectors     FFT dimensions: (  60,  60,  60)

     Smooth grid:    21595 G-vectors     FFT dimensions: (  40,  40,  40)

     Estimated max dynamical RAM per process >      37.89MB

     Estimated total allocated dynamical RAM >     151.56MB

     Initial potential from superposition of free atoms

     starting charge   25.99991, renormalised to   28.00000
     Starting wfc are   18 randomized atomic wfcs

     total cpu time spent up to now is        2.8 secs

     per-process dynamical memory:    42.9 Mb

     Self-consistent Calculation

     iteration #  1     ecut=    50.00 Ry     beta=0.70
     Davidson diagonalization with overlap
     ethr =  1.00E-02,  avg # of iterations =  2.9

     total cpu time spent up to now is        9.6 secs

     total energy              =    -317.49122208 Ry
     Harris-Foulkes estimate   =    -319.52682319 Ry
     estimated scf accuracy    <       2.48113446 Ry

     iteration #  2     ecut=    50.00 Ry     beta=0.70
     Davidson diagonalization with overlap
     ethr =  8.86E-03,  avg # of iterations =  3.0

     total cpu time spent up to now is       17.0 secs

     total energy              =    -318.38945483 Ry
     Harris-Foulkes estimate   =    -318.70542240 Ry
     estimated scf accuracy    <       0.47194766 Ry

     iteration #  3     ecut=    50.00 Ry     beta=0.70
     Davidson diagonalization with overlap
     ethr =  1.69E-03,  avg # of iterations =  2.0

     total cpu time spent up to now is       23.4 secs

     total energy              =    -318.48368908 Ry
     Harris-Foulkes estimate   =    -318.48526324 Ry
     estimated scf accuracy    <       0.00288328 Ry

     iteration #  4     ecut=    50.00 Ry     beta=0.70
     Davidson diagonalization with overlap
     ethr =  1.03E-05,  avg # of iterations =  3.0

     total cpu time spent up to now is       30.4 secs

     total energy              =    -318.48459145 Ry
     Harris-Foulkes estimate   =    -318.48471085 Ry
     estimated scf accuracy    <       0.00017774 Ry

     iteration #  5     ecut=    50.00 Ry     beta=0.70
     Davidson diagonalization with overlap
     ethr =  6.35E-07,  avg # of iterations =  3.0

     total cpu time spent up to now is       37.4 secs

     total energy              =    -318.48464520 Ry
     Harris-Foulkes estimate   =    -318.48464580 Ry
     estimated scf accuracy    <       0.00000134 Ry

     iteration #  6     ecut=    50.00 Ry     beta=0.70
     Davidson diagonalization with overlap
     ethr =  4.80E-09,  avg # of iterations =  3.9

     total cpu time spent up to now is       45.1 secs

     total energy              =    -318.48464595 Ry
     Harris-Foulkes estimate   =    -318.48464601 Ry
     estimated scf accuracy    <       0.00000009 Ry

     iteration #  7     ecut=    50.00 Ry     beta=0.70
     Davidson diagonalization with overlap
     ethr =  3.33E-10,  avg # of iterations =  3.0

     total cpu time spent up to now is       52.1 secs

     End of self-consistent calculation

     Number of k-points >= 100: set verbosity='high' to print the bands.

     highest occupied level (ev):     8.0949

!    total energy              =    -318.48464598 Ry
     Harris-Foulkes estimate   =    -318.48464598 Ry
     estimated scf accuracy    <          1.9E-09 Ry

     The total energy is the sum of the following terms:

     one-electron contribution =    -153.79782736 Ry
     hartree contribution      =      94.44719540 Ry
     xc contribution           =     -86.05001129 Ry
     ewald contribution        =    -173.08400273 Ry

     convergence has been achieved in   7 iterations


     Computing stress (Cartesian axis) and pressure

          total   stress  (Ry/bohr**3)                   (kbar)     P=   20.76
   0.00014115  -0.00000000   0.00000000         20.76     -0.00      0.00
  -0.00000000   0.00014115  -0.00000000         -0.00     20.76     -0.00
   0.00000000  -0.00000000   0.00014115          0.00     -0.00     20.76


     Writing output data file sn.a.12.2.12.save

     init_run     :      2.67s CPU      2.75s WALL (       1 calls)
     electrons    :     47.97s CPU     49.31s WALL (       1 calls)
     stress       :      1.69s CPU      1.72s WALL (       1 calls)

     Called by init_run:
     wfcinit      :      2.21s CPU      2.26s WALL (       1 calls)
     potinit      :      0.05s CPU      0.06s WALL (       1 calls)

     Called by electrons:
     c_bands      :     40.47s CPU     41.50s WALL (       7 calls)
     sum_band     :      6.71s CPU      6.95s WALL (       7 calls)
     v_of_rho     :      0.35s CPU      0.37s WALL (       8 calls)
     newd         :      0.48s CPU      0.54s WALL (       8 calls)
     mix_rho      :      0.03s CPU      0.03s WALL (       7 calls)

     Called by c_bands:
     init_us_2    :      1.00s CPU      1.02s WALL (    2912 calls)
     cegterg      :     38.55s CPU     39.57s WALL (    1274 calls)

     Called by sum_band:
     sum_band:bec :      0.01s CPU      0.01s WALL (    1274 calls)
     addusdens    :      0.52s CPU      0.61s WALL (       7 calls)

     Called by *egterg:
     h_psi        :     33.46s CPU     34.44s WALL (    5233 calls)
     s_psi        :      0.58s CPU      0.59s WALL (    5233 calls)
     g_psi        :      0.21s CPU      0.21s WALL (    3777 calls)
     cdiaghg      :      2.21s CPU      2.22s WALL (    5051 calls)

     Called by h_psi:
     h_psi:pot    :     33.19s CPU     34.16s WALL (    5233 calls)
     h_psi:calbec :      1.36s CPU      1.37s WALL (    5233 calls)
     vloc_psi     :     31.10s CPU     32.04s WALL (    5233 calls)
     add_vuspsi   :      0.72s CPU      0.73s WALL (    5233 calls)

     General routines
     calbec       :      1.76s CPU      1.78s WALL (    6689 calls)
     fft          :      0.17s CPU      0.18s WALL (     138 calls)
     ffts         :      0.01s CPU      0.01s WALL (      15 calls)
     fftw         :     29.30s CPU     30.28s WALL (  138438 calls)
     interpolate  :      0.03s CPU      0.03s WALL (      15 calls)
     davcio       :      0.00s CPU      0.02s WALL (     182 calls)

     Parallel routines
     fft_scatter  :      4.91s CPU      4.80s WALL (  138591 calls)

     PWSCF        :    52.59s CPU        54.06s WALL


   This run was terminated on:   1:34:30  23Nov2017            

=------------------------------------------------------------------------------=
   JOB DONE.
=------------------------------------------------------------------------------=
