
     Program PWSCF v.6.1 (svn rev. 13369) starts on 23Nov2017 at  1:34:30 

     This program is part of the open-source Quantum ESPRESSO suite
     for quantum simulation of materials; please cite
         "P. Giannozzi et al., J. Phys.:Condens. Matter 21 395502 (2009);
          URL http://www.quantum-espresso.org", 
     in publications or presentations arising from this work. More details at
     http://www.quantum-espresso.org/quote

     Parallel version (MPI), running on     4 processors
     R & G space division:  proc/nbgrp/npool/nimage =       4
     Waiting for input...
     Reading input from standard input
     Message from routine read_cards :
     DEPRECATED: no units specified in ATOMIC_POSITIONS card
     Message from routine read_cards :
     ATOMIC_POSITIONS: units set to alat

     Current dimensions of program PWSCF are:
     Max number of different atomic species (ntypx) = 10
     Max number of k-points (npk) =  40000
     Max angular momentum in pseudopotentials (lmaxx) =  3

     Subspace diagonalization in iterative solution of the eigenvalue problem:
     a serial algorithm will be used


     Parallelization info
     --------------------
     sticks:   dense  smooth     PW     G-vecs:    dense   smooth      PW
     Min         513     256     78                15380     5397     929
     Max         514     257     79                15385     5400     931
     Sum        2053    1027    313                61527    21595    3719



     bravais-lattice index     =            2
     lattice parameter (alat)  =      12.2000  a.u.
     unit-cell volume          =     453.9620 (a.u.)^3
     number of atoms/cell      =            2
     number of atomic types    =            1
     number of electrons       =        28.00
     number of Kohn-Sham states=           14
     kinetic-energy cutoff     =      50.0000  Ry
     charge density cutoff     =     400.0000  Ry
     convergence threshold     =      1.0E-08
     mixing beta               =       0.7000
     number of iterations used =            8  plain     mixing
     Exchange-correlation      =  SLA  PW   PBX  PBC ( 1  4  3  4 0 0)

     celldm(1)=  12.200000  celldm(2)=   0.000000  celldm(3)=   0.000000
     celldm(4)=   0.000000  celldm(5)=   0.000000  celldm(6)=   0.000000

     crystal axes: (cart. coord. in units of alat)
               a(1) = (  -0.500000   0.000000   0.500000 )  
               a(2) = (   0.000000   0.500000   0.500000 )  
               a(3) = (  -0.500000   0.500000   0.000000 )  

     reciprocal axes: (cart. coord. in units 2 pi/alat)
               b(1) = ( -1.000000 -1.000000  1.000000 )  
               b(2) = (  1.000000  1.000000  1.000000 )  
               b(3) = ( -1.000000  1.000000 -1.000000 )  


     PseudoPot. # 1 for Sn read from file:
     /home/s1333534/quantum_espresso/qe-6.1/pseudo/sn_pbe_v1.4.uspp.F.UPF
     MD5 check sum: 469debedee59599fedebd795477fea03
     Pseudo is Ultrasoft + core correction, Zval = 14.0
     Generated by new atomic code, or converted to UPF format
     Using radial grid of  891 points,  6 beta functions with: 
                l(1) =   0
                l(2) =   0
                l(3) =   1
                l(4) =   1
                l(5) =   2
                l(6) =   2
     Q(r) pseudized with  8 coefficients,  rinner =    1.350   1.350   1.350
                                                       1.350   1.350

     atomic species   valence    mass     pseudopotential
        Sn            14.00   118.71000     Sn( 1.00)

     48 Sym. Ops., with inversion, found (24 have fractional translation)



   Cartesian axes

     site n.     atom                  positions (alat units)
         1           Sn  tau(   1) = (   0.0000000   0.0000000   0.0000000  )
         2           Sn  tau(   2) = (   0.2500000   0.2500000   0.2500000  )

     number of k points=   280

     Number of k-points >= 100: set verbosity='high' to print them.

     Dense  grid:    61527 G-vectors     FFT dimensions: (  60,  60,  60)

     Smooth grid:    21595 G-vectors     FFT dimensions: (  40,  40,  40)

     Estimated max dynamical RAM per process >      52.06MB

     Estimated total allocated dynamical RAM >     208.26MB

     Initial potential from superposition of free atoms

     starting charge   25.99991, renormalised to   28.00000
     Starting wfc are   18 randomized atomic wfcs

     total cpu time spent up to now is        4.1 secs

     per-process dynamical memory:    58.0 Mb

     Self-consistent Calculation

     iteration #  1     ecut=    50.00 Ry     beta=0.70
     Davidson diagonalization with overlap
     ethr =  1.00E-02,  avg # of iterations =  2.9

     total cpu time spent up to now is       15.0 secs

     total energy              =    -317.49126183 Ry
     Harris-Foulkes estimate   =    -319.52683302 Ry
     estimated scf accuracy    <       2.48109155 Ry

     iteration #  2     ecut=    50.00 Ry     beta=0.70
     Davidson diagonalization with overlap
     ethr =  8.86E-03,  avg # of iterations =  3.0

     total cpu time spent up to now is       26.7 secs

     total energy              =    -318.38944052 Ry
     Harris-Foulkes estimate   =    -318.70547235 Ry
     estimated scf accuracy    <       0.47203010 Ry

     iteration #  3     ecut=    50.00 Ry     beta=0.70
     Davidson diagonalization with overlap
     ethr =  1.69E-03,  avg # of iterations =  2.0

     total cpu time spent up to now is       37.1 secs

     total energy              =    -318.48369620 Ry
     Harris-Foulkes estimate   =    -318.48526802 Ry
     estimated scf accuracy    <       0.00288003 Ry

     iteration #  4     ecut=    50.00 Ry     beta=0.70
     Davidson diagonalization with overlap
     ethr =  1.03E-05,  avg # of iterations =  3.0

     total cpu time spent up to now is       48.0 secs

     total energy              =    -318.48459453 Ry
     Harris-Foulkes estimate   =    -318.48471454 Ry
     estimated scf accuracy    <       0.00017865 Ry

     iteration #  5     ecut=    50.00 Ry     beta=0.70
     Davidson diagonalization with overlap
     ethr =  6.38E-07,  avg # of iterations =  3.0

     total cpu time spent up to now is       58.6 secs

     total energy              =    -318.48464858 Ry
     Harris-Foulkes estimate   =    -318.48464923 Ry
     estimated scf accuracy    <       0.00000141 Ry

     iteration #  6     ecut=    50.00 Ry     beta=0.70
     Davidson diagonalization with overlap
     ethr =  5.03E-09,  avg # of iterations =  3.9

     total cpu time spent up to now is       70.7 secs

     total energy              =    -318.48464937 Ry
     Harris-Foulkes estimate   =    -318.48464943 Ry
     estimated scf accuracy    <       0.00000009 Ry

     iteration #  7     ecut=    50.00 Ry     beta=0.70
     Davidson diagonalization with overlap
     ethr =  3.28E-10,  avg # of iterations =  3.0

     total cpu time spent up to now is       81.5 secs

     End of self-consistent calculation

     Number of k-points >= 100: set verbosity='high' to print the bands.

     highest occupied level (ev):     8.1051

!    total energy              =    -318.48464940 Ry
     Harris-Foulkes estimate   =    -318.48464940 Ry
     estimated scf accuracy    <          2.1E-09 Ry

     The total energy is the sum of the following terms:

     one-electron contribution =    -153.79781169 Ry
     hartree contribution      =      94.44717233 Ry
     xc contribution           =     -86.05000731 Ry
     ewald contribution        =    -173.08400273 Ry

     convergence has been achieved in   7 iterations


     Computing stress (Cartesian axis) and pressure

          total   stress  (Ry/bohr**3)                   (kbar)     P=   20.74
   0.00014099   0.00000000   0.00000000         20.74      0.00      0.00
   0.00000000   0.00014099  -0.00000000          0.00     20.74     -0.00
   0.00000000  -0.00000000   0.00014099          0.00     -0.00     20.74


     Writing output data file sn.a.12.2.14.save

     init_run     :      3.93s CPU      4.05s WALL (       1 calls)
     electrons    :     75.46s CPU     77.43s WALL (       1 calls)
     stress       :      2.31s CPU      2.34s WALL (       1 calls)

     Called by init_run:
     wfcinit      :      3.46s CPU      3.56s WALL (       1 calls)
     potinit      :      0.06s CPU      0.06s WALL (       1 calls)

     Called by electrons:
     c_bands      :     64.66s CPU     66.24s WALL (       7 calls)
     sum_band     :      9.96s CPU     10.29s WALL (       7 calls)
     v_of_rho     :      0.36s CPU      0.38s WALL (       8 calls)
     newd         :      0.52s CPU      0.57s WALL (       8 calls)
     mix_rho      :      0.03s CPU      0.03s WALL (       7 calls)

     Called by c_bands:
     init_us_2    :      1.63s CPU      1.65s WALL (    4480 calls)
     cegterg      :     61.60s CPU     63.15s WALL (    1960 calls)

     Called by sum_band:
     sum_band:bec :      0.01s CPU      0.02s WALL (    1960 calls)
     addusdens    :      0.51s CPU      0.59s WALL (       7 calls)

     Called by *egterg:
     h_psi        :     53.52s CPU     55.05s WALL (    8070 calls)
     s_psi        :      1.05s CPU      1.06s WALL (    8070 calls)
     g_psi        :      0.33s CPU      0.33s WALL (    5830 calls)
     cdiaghg      :      3.47s CPU      3.48s WALL (    7790 calls)

     Called by h_psi:
     h_psi:pot    :     52.94s CPU     54.46s WALL (    8070 calls)
     h_psi:calbec :      2.13s CPU      2.17s WALL (    8070 calls)
     vloc_psi     :     49.37s CPU     50.81s WALL (    8070 calls)
     add_vuspsi   :      1.42s CPU      1.45s WALL (    8070 calls)

     General routines
     calbec       :      2.80s CPU      2.84s WALL (   10310 calls)
     fft          :      0.21s CPU      0.22s WALL (     138 calls)
     ffts         :      0.01s CPU      0.01s WALL (      15 calls)
     fftw         :     45.40s CPU     47.02s WALL (  213222 calls)
     interpolate  :      0.04s CPU      0.04s WALL (      15 calls)
     davcio       :      0.01s CPU      0.03s WALL (     280 calls)

     Parallel routines
     fft_scatter  :      7.76s CPU      7.55s WALL (  213375 calls)

     PWSCF        :  1m22.03s CPU     1m24.27s WALL


   This run was terminated on:   1:35:54  23Nov2017            

=------------------------------------------------------------------------------=
   JOB DONE.
=------------------------------------------------------------------------------=
