
     Program PWSCF v.6.1 (svn rev. 13369) starts on 23Nov2017 at  1:33: 2 

     This program is part of the open-source Quantum ESPRESSO suite
     for quantum simulation of materials; please cite
         "P. Giannozzi et al., J. Phys.:Condens. Matter 21 395502 (2009);
          URL http://www.quantum-espresso.org", 
     in publications or presentations arising from this work. More details at
     http://www.quantum-espresso.org/quote

     Parallel version (MPI), running on     4 processors
     R & G space division:  proc/nbgrp/npool/nimage =       4
     Waiting for input...
     Reading input from standard input
     Message from routine read_cards :
     DEPRECATED: no units specified in ATOMIC_POSITIONS card
     Message from routine read_cards :
     ATOMIC_POSITIONS: units set to alat

     Current dimensions of program PWSCF are:
     Max number of different atomic species (ntypx) = 10
     Max number of k-points (npk) =  40000
     Max angular momentum in pseudopotentials (lmaxx) =  3

     Subspace diagonalization in iterative solution of the eigenvalue problem:
     a serial algorithm will be used


     Parallelization info
     --------------------
     sticks:   dense  smooth     PW     G-vecs:    dense   smooth      PW
     Min         513     256     78                15380     5397     923
     Max         514     257     79                15385     5400     925
     Sum        2053    1027    313                61527    21595    3695



     bravais-lattice index     =            2
     lattice parameter (alat)  =      12.2000  a.u.
     unit-cell volume          =     453.9620 (a.u.)^3
     number of atoms/cell      =            2
     number of atomic types    =            1
     number of electrons       =        28.00
     number of Kohn-Sham states=           14
     kinetic-energy cutoff     =      50.0000  Ry
     charge density cutoff     =     400.0000  Ry
     convergence threshold     =      1.0E-08
     mixing beta               =       0.7000
     number of iterations used =            8  plain     mixing
     Exchange-correlation      =  SLA  PW   PBX  PBC ( 1  4  3  4 0 0)

     celldm(1)=  12.200000  celldm(2)=   0.000000  celldm(3)=   0.000000
     celldm(4)=   0.000000  celldm(5)=   0.000000  celldm(6)=   0.000000

     crystal axes: (cart. coord. in units of alat)
               a(1) = (  -0.500000   0.000000   0.500000 )  
               a(2) = (   0.000000   0.500000   0.500000 )  
               a(3) = (  -0.500000   0.500000   0.000000 )  

     reciprocal axes: (cart. coord. in units 2 pi/alat)
               b(1) = ( -1.000000 -1.000000  1.000000 )  
               b(2) = (  1.000000  1.000000  1.000000 )  
               b(3) = ( -1.000000  1.000000 -1.000000 )  


     PseudoPot. # 1 for Sn read from file:
     /home/s1333534/quantum_espresso/qe-6.1/pseudo/sn_pbe_v1.4.uspp.F.UPF
     MD5 check sum: 469debedee59599fedebd795477fea03
     Pseudo is Ultrasoft + core correction, Zval = 14.0
     Generated by new atomic code, or converted to UPF format
     Using radial grid of  891 points,  6 beta functions with: 
                l(1) =   0
                l(2) =   0
                l(3) =   1
                l(4) =   1
                l(5) =   2
                l(6) =   2
     Q(r) pseudized with  8 coefficients,  rinner =    1.350   1.350   1.350
                                                       1.350   1.350

     atomic species   valence    mass     pseudopotential
        Sn            14.00   118.71000     Sn( 1.00)

     48 Sym. Ops., with inversion, found (24 have fractional translation)



   Cartesian axes

     site n.     atom                  positions (alat units)
         1           Sn  tau(   1) = (   0.0000000   0.0000000   0.0000000  )
         2           Sn  tau(   2) = (   0.2500000   0.2500000   0.2500000  )

     number of k points=   110

     Number of k-points >= 100: set verbosity='high' to print them.

     Dense  grid:    61527 G-vectors     FFT dimensions: (  60,  60,  60)

     Smooth grid:    21595 G-vectors     FFT dimensions: (  40,  40,  40)

     Estimated max dynamical RAM per process >      27.48MB

     Estimated total allocated dynamical RAM >     109.91MB

     Initial potential from superposition of free atoms

     starting charge   25.99991, renormalised to   28.00000
     Starting wfc are   18 randomized atomic wfcs

     total cpu time spent up to now is        1.9 secs

     per-process dynamical memory:    31.9 Mb

     Self-consistent Calculation

     iteration #  1     ecut=    50.00 Ry     beta=0.70
     Davidson diagonalization with overlap
     ethr =  1.00E-02,  avg # of iterations =  2.9

     total cpu time spent up to now is        6.1 secs

     total energy              =    -317.49126826 Ry
     Harris-Foulkes estimate   =    -319.52681237 Ry
     estimated scf accuracy    <       2.48105208 Ry

     iteration #  2     ecut=    50.00 Ry     beta=0.70
     Davidson diagonalization with overlap
     ethr =  8.86E-03,  avg # of iterations =  3.0

     total cpu time spent up to now is       10.7 secs

     total energy              =    -318.38943506 Ry
     Harris-Foulkes estimate   =    -318.70536062 Ry
     estimated scf accuracy    <       0.47187436 Ry

     iteration #  3     ecut=    50.00 Ry     beta=0.70
     Davidson diagonalization with overlap
     ethr =  1.69E-03,  avg # of iterations =  2.0

     total cpu time spent up to now is       14.7 secs

     total energy              =    -318.48368864 Ry
     Harris-Foulkes estimate   =    -318.48526337 Ry
     estimated scf accuracy    <       0.00288297 Ry

     iteration #  4     ecut=    50.00 Ry     beta=0.70
     Davidson diagonalization with overlap
     ethr =  1.03E-05,  avg # of iterations =  3.1

     total cpu time spent up to now is       19.0 secs

     total energy              =    -318.48459161 Ry
     Harris-Foulkes estimate   =    -318.48471079 Ry
     estimated scf accuracy    <       0.00017751 Ry

     iteration #  5     ecut=    50.00 Ry     beta=0.70
     Davidson diagonalization with overlap
     ethr =  6.34E-07,  avg # of iterations =  3.0

     total cpu time spent up to now is       23.4 secs

     total energy              =    -318.48464502 Ry
     Harris-Foulkes estimate   =    -318.48464560 Ry
     estimated scf accuracy    <       0.00000131 Ry

     iteration #  6     ecut=    50.00 Ry     beta=0.70
     Davidson diagonalization with overlap
     ethr =  4.68E-09,  avg # of iterations =  3.9

     total cpu time spent up to now is       28.1 secs

     total energy              =    -318.48464576 Ry
     Harris-Foulkes estimate   =    -318.48464582 Ry
     estimated scf accuracy    <       0.00000009 Ry

     iteration #  7     ecut=    50.00 Ry     beta=0.70
     Davidson diagonalization with overlap
     ethr =  3.35E-10,  avg # of iterations =  3.0

     total cpu time spent up to now is       32.5 secs

     End of self-consistent calculation

     Number of k-points >= 100: set verbosity='high' to print the bands.

     highest occupied level (ev):     8.0783

!    total energy              =    -318.48464579 Ry
     Harris-Foulkes estimate   =    -318.48464579 Ry
     estimated scf accuracy    <          1.8E-09 Ry

     The total energy is the sum of the following terms:

     one-electron contribution =    -153.79787408 Ry
     hartree contribution      =      94.44724940 Ry
     xc contribution           =     -86.05001838 Ry
     ewald contribution        =    -173.08400273 Ry

     convergence has been achieved in   7 iterations


     Computing stress (Cartesian axis) and pressure

          total   stress  (Ry/bohr**3)                   (kbar)     P=   20.79
   0.00014134   0.00000000   0.00000000         20.79      0.00      0.00
   0.00000000   0.00014134   0.00000000          0.00     20.79      0.00
   0.00000000   0.00000000   0.00014134          0.00      0.00     20.79


     Writing output data file sn.a.12.2.10.save

     init_run     :      1.80s CPU      1.86s WALL (       1 calls)
     electrons    :     29.51s CPU     30.55s WALL (       1 calls)
     stress       :      1.19s CPU      1.24s WALL (       1 calls)

     Called by init_run:
     wfcinit      :      1.35s CPU      1.37s WALL (       1 calls)
     potinit      :      0.06s CPU      0.06s WALL (       1 calls)

     Called by electrons:
     c_bands      :     24.46s CPU     25.24s WALL (       7 calls)
     sum_band     :      4.24s CPU      4.45s WALL (       7 calls)
     v_of_rho     :      0.36s CPU      0.37s WALL (       8 calls)
     newd         :      0.50s CPU      0.55s WALL (       8 calls)
     mix_rho      :      0.03s CPU      0.03s WALL (       7 calls)

     Called by c_bands:
     init_us_2    :      0.61s CPU      0.62s WALL (    1760 calls)
     cegterg      :     23.28s CPU     24.05s WALL (     770 calls)

     Called by sum_band:
     sum_band:bec :      0.00s CPU      0.01s WALL (     770 calls)
     addusdens    :      0.50s CPU      0.58s WALL (       7 calls)

     Called by *egterg:
     h_psi        :     20.24s CPU     20.98s WALL (    3169 calls)
     s_psi        :      0.35s CPU      0.35s WALL (    3169 calls)
     g_psi        :      0.13s CPU      0.13s WALL (    2289 calls)
     cdiaghg      :      1.34s CPU      1.34s WALL (    3059 calls)

     Called by h_psi:
     h_psi:pot    :     20.09s CPU     20.82s WALL (    3169 calls)
     h_psi:calbec :      0.82s CPU      0.83s WALL (    3169 calls)
     vloc_psi     :     18.84s CPU     19.53s WALL (    3169 calls)
     add_vuspsi   :      0.44s CPU      0.44s WALL (    3169 calls)

     General routines
     calbec       :      1.06s CPU      1.08s WALL (    4049 calls)
     fft          :      0.18s CPU      0.20s WALL (     138 calls)
     ffts         :      0.01s CPU      0.01s WALL (      15 calls)
     fftw         :     17.65s CPU     18.37s WALL (   83646 calls)
     interpolate  :      0.03s CPU      0.03s WALL (      15 calls)
     davcio       :      0.00s CPU      0.01s WALL (     110 calls)

     Parallel routines
     fft_scatter  :      2.93s CPU      2.89s WALL (   83799 calls)

     PWSCF        :    32.68s CPU        33.87s WALL


   This run was terminated on:   1:33:35  23Nov2017            

=------------------------------------------------------------------------------=
   JOB DONE.
=------------------------------------------------------------------------------=
