
     Program PWSCF v.6.1 (svn rev. 13369) starts on 23Nov2017 at  1:32:41 

     This program is part of the open-source Quantum ESPRESSO suite
     for quantum simulation of materials; please cite
         "P. Giannozzi et al., J. Phys.:Condens. Matter 21 395502 (2009);
          URL http://www.quantum-espresso.org", 
     in publications or presentations arising from this work. More details at
     http://www.quantum-espresso.org/quote

     Parallel version (MPI), running on     4 processors
     R & G space division:  proc/nbgrp/npool/nimage =       4
     Waiting for input...
     Reading input from standard input
     Message from routine read_cards :
     DEPRECATED: no units specified in ATOMIC_POSITIONS card
     Message from routine read_cards :
     ATOMIC_POSITIONS: units set to alat

     Current dimensions of program PWSCF are:
     Max number of different atomic species (ntypx) = 10
     Max number of k-points (npk) =  40000
     Max angular momentum in pseudopotentials (lmaxx) =  3

     Subspace diagonalization in iterative solution of the eigenvalue problem:
     a serial algorithm will be used


     Parallelization info
     --------------------
     sticks:   dense  smooth     PW     G-vecs:    dense   smooth      PW
     Min         513     256     78                15380     5397     923
     Max         514     257     79                15385     5400     925
     Sum        2053    1027    313                61527    21595    3695



     bravais-lattice index     =            2
     lattice parameter (alat)  =      12.2000  a.u.
     unit-cell volume          =     453.9620 (a.u.)^3
     number of atoms/cell      =            2
     number of atomic types    =            1
     number of electrons       =        28.00
     number of Kohn-Sham states=           14
     kinetic-energy cutoff     =      50.0000  Ry
     charge density cutoff     =     400.0000  Ry
     convergence threshold     =      1.0E-08
     mixing beta               =       0.7000
     number of iterations used =            8  plain     mixing
     Exchange-correlation      =  SLA  PW   PBX  PBC ( 1  4  3  4 0 0)

     celldm(1)=  12.200000  celldm(2)=   0.000000  celldm(3)=   0.000000
     celldm(4)=   0.000000  celldm(5)=   0.000000  celldm(6)=   0.000000

     crystal axes: (cart. coord. in units of alat)
               a(1) = (  -0.500000   0.000000   0.500000 )  
               a(2) = (   0.000000   0.500000   0.500000 )  
               a(3) = (  -0.500000   0.500000   0.000000 )  

     reciprocal axes: (cart. coord. in units 2 pi/alat)
               b(1) = ( -1.000000 -1.000000  1.000000 )  
               b(2) = (  1.000000  1.000000  1.000000 )  
               b(3) = ( -1.000000  1.000000 -1.000000 )  


     PseudoPot. # 1 for Sn read from file:
     /home/s1333534/quantum_espresso/qe-6.1/pseudo/sn_pbe_v1.4.uspp.F.UPF
     MD5 check sum: 469debedee59599fedebd795477fea03
     Pseudo is Ultrasoft + core correction, Zval = 14.0
     Generated by new atomic code, or converted to UPF format
     Using radial grid of  891 points,  6 beta functions with: 
                l(1) =   0
                l(2) =   0
                l(3) =   1
                l(4) =   1
                l(5) =   2
                l(6) =   2
     Q(r) pseudized with  8 coefficients,  rinner =    1.350   1.350   1.350
                                                       1.350   1.350

     atomic species   valence    mass     pseudopotential
        Sn            14.00   118.71000     Sn( 1.00)

     48 Sym. Ops., with inversion, found (24 have fractional translation)



   Cartesian axes

     site n.     atom                  positions (alat units)
         1           Sn  tau(   1) = (   0.0000000   0.0000000   0.0000000  )
         2           Sn  tau(   2) = (   0.2500000   0.2500000   0.2500000  )

     number of k points=    60
                       cart. coord. in units 2pi/alat
        k(    1) = (  -0.0625000   0.0625000   0.0625000), wk =   0.0078125
        k(    2) = (  -0.1875000   0.1875000  -0.0625000), wk =   0.0234375
        k(    3) = (  -0.3125000   0.3125000  -0.1875000), wk =   0.0234375
        k(    4) = (  -0.4375000   0.4375000  -0.3125000), wk =   0.0234375
        k(    5) = (   0.4375000  -0.4375000   0.5625000), wk =   0.0234375
        k(    6) = (   0.3125000  -0.3125000   0.4375000), wk =   0.0234375
        k(    7) = (   0.1875000  -0.1875000   0.3125000), wk =   0.0234375
        k(    8) = (   0.0625000  -0.0625000   0.1875000), wk =   0.0234375
        k(    9) = (  -0.0625000   0.3125000   0.0625000), wk =   0.0234375
        k(   10) = (  -0.1875000   0.4375000  -0.0625000), wk =   0.0468750
        k(   11) = (  -0.3125000   0.5625000  -0.1875000), wk =   0.0468750
        k(   12) = (   0.5625000  -0.3125000   0.6875000), wk =   0.0468750
        k(   13) = (   0.4375000  -0.1875000   0.5625000), wk =   0.0468750
        k(   14) = (   0.3125000  -0.0625000   0.4375000), wk =   0.0468750
        k(   15) = (   0.1875000   0.0625000   0.3125000), wk =   0.0468750
        k(   16) = (  -0.0625000   0.5625000   0.0625000), wk =   0.0234375
        k(   17) = (  -0.1875000   0.6875000  -0.0625000), wk =   0.0468750
        k(   18) = (   0.6875000  -0.1875000   0.8125000), wk =   0.0468750
        k(   19) = (   0.5625000  -0.0625000   0.6875000), wk =   0.0468750
        k(   20) = (   0.4375000   0.0625000   0.5625000), wk =   0.0468750
        k(   21) = (   0.3125000   0.1875000   0.4375000), wk =   0.0468750
        k(   22) = (  -0.0625000   0.8125000   0.0625000), wk =   0.0234375
        k(   23) = (   0.8125000  -0.0625000   0.9375000), wk =   0.0468750
        k(   24) = (   0.6875000   0.0625000   0.8125000), wk =   0.0468750
        k(   25) = (   0.5625000   0.1875000   0.6875000), wk =   0.0468750
        k(   26) = (   0.4375000   0.3125000   0.5625000), wk =   0.0468750
        k(   27) = (  -0.0625000  -0.9375000   0.0625000), wk =   0.0234375
        k(   28) = (  -0.1875000  -0.8125000  -0.0625000), wk =   0.0468750
        k(   29) = (  -0.3125000  -0.6875000  -0.1875000), wk =   0.0468750
        k(   30) = (  -0.0625000  -0.6875000   0.0625000), wk =   0.0234375
        k(   31) = (  -0.1875000  -0.5625000  -0.0625000), wk =   0.0468750
        k(   32) = (  -0.0625000  -0.4375000   0.0625000), wk =   0.0234375
        k(   33) = (  -0.1875000   0.1875000   0.1875000), wk =   0.0078125
        k(   34) = (  -0.3125000   0.3125000   0.0625000), wk =   0.0234375
        k(   35) = (  -0.4375000   0.4375000  -0.0625000), wk =   0.0234375
        k(   36) = (   0.4375000  -0.4375000   0.8125000), wk =   0.0234375
        k(   37) = (   0.3125000  -0.3125000   0.6875000), wk =   0.0234375
        k(   38) = (   0.1875000  -0.1875000   0.5625000), wk =   0.0234375
        k(   39) = (  -0.1875000   0.4375000   0.1875000), wk =   0.0234375
        k(   40) = (  -0.3125000   0.5625000   0.0625000), wk =   0.0468750
        k(   41) = (   0.5625000  -0.3125000   0.9375000), wk =   0.0468750
        k(   42) = (   0.4375000  -0.1875000   0.8125000), wk =   0.0468750
        k(   43) = (   0.3125000  -0.0625000   0.6875000), wk =   0.0468750
        k(   44) = (  -0.1875000   0.6875000   0.1875000), wk =   0.0234375
        k(   45) = (   0.6875000  -0.1875000   1.0625000), wk =   0.0468750
        k(   46) = (   0.5625000  -0.0625000   0.9375000), wk =   0.0468750
        k(   47) = (   0.4375000   0.0625000   0.8125000), wk =   0.0468750
        k(   48) = (  -0.1875000  -1.0625000   0.1875000), wk =   0.0234375
        k(   49) = (  -0.3125000  -0.9375000   0.0625000), wk =   0.0468750
        k(   50) = (  -0.1875000  -0.8125000   0.1875000), wk =   0.0234375
        k(   51) = (  -0.3125000   0.3125000   0.3125000), wk =   0.0078125
        k(   52) = (  -0.4375000   0.4375000   0.1875000), wk =   0.0234375
        k(   53) = (   0.4375000  -0.4375000   1.0625000), wk =   0.0234375
        k(   54) = (   0.3125000  -0.3125000   0.9375000), wk =   0.0234375
        k(   55) = (  -0.3125000   0.5625000   0.3125000), wk =   0.0234375
        k(   56) = (   0.5625000  -0.3125000   1.1875000), wk =   0.0468750
        k(   57) = (   0.4375000  -0.1875000   1.0625000), wk =   0.0468750
        k(   58) = (  -0.3125000  -1.1875000   0.3125000), wk =   0.0234375
        k(   59) = (  -0.4375000   0.4375000   0.4375000), wk =   0.0078125
        k(   60) = (   0.4375000  -0.4375000   1.3125000), wk =   0.0234375

     Dense  grid:    61527 G-vectors     FFT dimensions: (  60,  60,  60)

     Smooth grid:    21595 G-vectors     FFT dimensions: (  40,  40,  40)

     Estimated max dynamical RAM per process >      20.25MB

     Estimated total allocated dynamical RAM >      80.99MB

     Initial potential from superposition of free atoms

     starting charge   25.99991, renormalised to   28.00000
     Starting wfc are   18 randomized atomic wfcs

     total cpu time spent up to now is        1.3 secs

     per-process dynamical memory:    24.4 Mb

     Self-consistent Calculation

     iteration #  1     ecut=    50.00 Ry     beta=0.70
     Davidson diagonalization with overlap
     ethr =  1.00E-02,  avg # of iterations =  2.9

     total cpu time spent up to now is        3.7 secs

     total energy              =    -317.49112801 Ry
     Harris-Foulkes estimate   =    -319.52683848 Ry
     estimated scf accuracy    <       2.48126079 Ry

     iteration #  2     ecut=    50.00 Ry     beta=0.70
     Davidson diagonalization with overlap
     ethr =  8.86E-03,  avg # of iterations =  3.0

     total cpu time spent up to now is        6.5 secs

     total energy              =    -318.38938386 Ry
     Harris-Foulkes estimate   =    -318.70540604 Ry
     estimated scf accuracy    <       0.47204577 Ry

     iteration #  3     ecut=    50.00 Ry     beta=0.70
     Davidson diagonalization with overlap
     ethr =  1.69E-03,  avg # of iterations =  2.0

     total cpu time spent up to now is        8.8 secs

     total energy              =    -318.48366428 Ry
     Harris-Foulkes estimate   =    -318.48523872 Ry
     estimated scf accuracy    <       0.00288508 Ry

     iteration #  4     ecut=    50.00 Ry     beta=0.70
     Davidson diagonalization with overlap
     ethr =  1.03E-05,  avg # of iterations =  3.1

     total cpu time spent up to now is       11.4 secs

     total energy              =    -318.48456536 Ry
     Harris-Foulkes estimate   =    -318.48468476 Ry
     estimated scf accuracy    <       0.00017788 Ry

     iteration #  5     ecut=    50.00 Ry     beta=0.70
     Davidson diagonalization with overlap
     ethr =  6.35E-07,  avg # of iterations =  3.0

     total cpu time spent up to now is       14.0 secs

     total energy              =    -318.48461926 Ry
     Harris-Foulkes estimate   =    -318.48461983 Ry
     estimated scf accuracy    <       0.00000131 Ry

     iteration #  6     ecut=    50.00 Ry     beta=0.70
     Davidson diagonalization with overlap
     ethr =  4.69E-09,  avg # of iterations =  3.9

     total cpu time spent up to now is       16.8 secs

     total energy              =    -318.48461998 Ry
     Harris-Foulkes estimate   =    -318.48462005 Ry
     estimated scf accuracy    <       0.00000011 Ry

     iteration #  7     ecut=    50.00 Ry     beta=0.70
     Davidson diagonalization with overlap
     ethr =  3.75E-10,  avg # of iterations =  3.0

     total cpu time spent up to now is       19.4 secs

     End of self-consistent calculation

          k =-0.0625 0.0625 0.0625 (  2718 PWs)   bands (ev):

   -13.6869 -13.6869 -13.6823 -13.6177 -13.6177 -13.3104 -13.3104 -13.3020
   -13.2820 -13.2820  -2.6243   6.8632   8.0489   8.0489

          k =-0.1875 0.1875-0.0625 (  2712 PWs)   bands (ev):

   -13.7021 -13.6953 -13.6783 -13.6035 -13.5944 -13.3391 -13.3280 -13.2971
   -13.2769 -13.2591  -2.4208   5.4660   7.2754   7.8976

          k =-0.3125 0.3125-0.1875 (  2712 PWs)   bands (ev):

   -13.7161 -13.7117 -13.6647 -13.5810 -13.5682 -13.3615 -13.3470 -13.3167
   -13.2555 -13.2444  -1.9345   3.6813   6.7510   7.4228

          k =-0.4375 0.4375-0.3125 (  2717 PWs)   bands (ev):

   -13.7227 -13.7222 -13.6520 -13.5646 -13.5550 -13.3698 -13.3575 -13.3370
   -13.2419 -13.2389  -1.2833   2.2177   6.4964   7.0224

          k = 0.4375-0.4375 0.5625 (  2715 PWs)   bands (ev):

   -13.7268 -13.7216 -13.6487 -13.5566 -13.5557 -13.3681 -13.3645 -13.3406
   -13.2410 -13.2356  -0.9877   1.7132   6.5055   6.8274

          k = 0.3125-0.3125 0.4375 (  2711 PWs)   bands (ev):

   -13.7236 -13.7161 -13.6573 -13.5682 -13.5571 -13.3736 -13.3520 -13.3279
   -13.2486 -13.2379  -1.5004   2.6407   6.7602   6.8785

          k = 0.1875-0.1875 0.3125 (  2708 PWs)   bands (ev):

   -13.7124 -13.7053 -13.6711 -13.5885 -13.5742 -13.3628 -13.3336 -13.3094
   -13.2622 -13.2491  -2.1239   4.2636   7.1745   7.2128

          k = 0.0625-0.0625 0.1875 (  2711 PWs)   bands (ev):

   -13.6946 -13.6904 -13.6832 -13.6122 -13.6012 -13.3378 -13.3089 -13.2970
   -13.2829 -13.2671  -2.5219   6.0750   7.6505   7.7045

          k =-0.0625 0.3125 0.0625 (  2724 PWs)   bands (ev):

   -13.7028 -13.6977 -13.6859 -13.6006 -13.5751 -13.3729 -13.3141 -13.2877
   -13.2781 -13.2588  -2.3178   5.1804   7.1326   7.1382

          k =-0.1875 0.4375-0.0625 (  2709 PWs)   bands (ev):

   -13.7190 -13.7118 -13.6698 -13.5799 -13.5441 -13.4052 -13.3356 -13.2990
   -13.2586 -13.2428  -1.9207   3.9369   6.2650   6.8898

          k =-0.3125 0.5625-0.1875 (  2717 PWs)   bands (ev):

   -13.7367 -13.7231 -13.6426 -13.5574 -13.5267 -13.4180 -13.3596 -13.3317
   -13.2407 -13.2245  -1.2963   2.5331   5.7344   6.5489

          k = 0.5625-0.3125 0.6875 (  2707 PWs)   bands (ev):

   -13.7445 -13.7286 -13.6234 -13.5405 -13.5308 -13.4047 -13.3820 -13.3544
   -13.2317 -13.2159  -0.7766   1.6661   5.4582   6.4718

          k = 0.4375-0.1875 0.5625 (  2710 PWs)   bands (ev):

   -13.7401 -13.7289 -13.6269 -13.5550 -13.5287 -13.4035 -13.3654 -13.3571
   -13.2312 -13.2220  -1.0833   2.1530   5.4477   6.7065

          k = 0.3125-0.0625 0.4375 (  2706 PWs)   bands (ev):

   -13.7249 -13.7214 -13.6510 -13.5752 -13.5435 -13.3950 -13.3489 -13.3221
   -13.2466 -13.2348  -1.7367   3.4447   5.8108   7.1455

          k = 0.1875 0.0625 0.3125 (  2716 PWs)   bands (ev):

   -13.7105 -13.7026 -13.6747 -13.5943 -13.5737 -13.3681 -13.3291 -13.2968
   -13.2712 -13.2500  -2.2197   4.7150   6.7600   7.4783

          k =-0.0625 0.5625 0.0625 (  2700 PWs)   bands (ev):

   -13.7205 -13.7165 -13.6768 -13.5600 -13.5048 -13.4540 -13.3506 -13.2833
   -13.2501 -13.2443  -1.6126   3.3752   6.1341   6.2320

          k =-0.1875 0.6875-0.0625 (  2714 PWs)   bands (ev):

   -13.7366 -13.7295 -13.6465 -13.5333 -13.4861 -13.4737 -13.3785 -13.3173
   -13.2324 -13.2243  -1.0449   2.3703   5.5045   5.9408

          k = 0.6875-0.1875 0.8125 (  2702 PWs)   bands (ev):

   -13.7545 -13.7354 -13.6081 -13.5078 -13.4884 -13.4667 -13.4084 -13.3575
   -13.2229 -13.2036  -0.4017   1.4743   4.8636   5.9069

          k = 0.5625-0.0625 0.6875 (  2707 PWs)   bands (ev):

   -13.7576 -13.7370 -13.5970 -13.5153 -13.4907 -13.4461 -13.4194 -13.3700
   -13.2200 -13.2014  -0.4692   1.5604   4.6210   6.1910

          k = 0.4375 0.0625 0.5625 (  2708 PWs)   bands (ev):

   -13.7437 -13.7325 -13.6181 -13.5542 -13.5155 -13.4181 -13.3688 -13.3629
   -13.2257 -13.2189  -1.1191   2.3794   5.0515   6.6791

          k = 0.3125 0.1875 0.4375 (  2713 PWs)   bands (ev):

   -13.7253 -13.7172 -13.6550 -13.5727 -13.5503 -13.3860 -13.3488 -13.3237
   -13.2491 -13.2357  -1.6560   3.0952   6.2513   7.0422

          k =-0.0625 0.8125 0.0625 (  2712 PWs)   bands (ev):

   -13.7355 -13.7324 -13.6394 -13.5376 -13.5028 -13.4272 -13.4068 -13.3235
   -13.2265 -13.2231  -0.5361   1.6560   5.5423   5.6856

          k = 0.8125-0.0625 0.9375 (  2705 PWs)   bands (ev):

   -13.7461 -13.7390 -13.5988 -13.5600 -13.4720 -13.4391 -13.4035 -13.3653
   -13.2177 -13.2106   0.1501   0.8658   5.1544   5.5168

          k = 0.6875 0.0625 0.8125 (  2699 PWs)   bands (ev):

   -13.7585 -13.7386 -13.5927 -13.5068 -13.4796 -13.4515 -13.4359 -13.3714
   -13.2180 -13.1986   0.0184   1.0360   4.6547   5.7825

          k = 0.5625 0.1875 0.6875 (  2712 PWs)   bands (ev):

   -13.7531 -13.7340 -13.6075 -13.5257 -13.5104 -13.4279 -13.4023 -13.3638
   -13.2247 -13.2065  -0.5764   1.5723   4.9373   6.2843

          k = 0.4375 0.3125 0.5625 (  2714 PWs)   bands (ev):

   -13.7336 -13.7240 -13.6393 -13.5560 -13.5451 -13.3836 -13.3646 -13.3465
   -13.2380 -13.2284  -1.0291   1.8831   6.0294   6.7531

          k =-0.0625-0.9375 0.0625 (  2724 PWs)   bands (ev):

   -13.7391 -13.7361 -13.6111 -13.5759 -13.4712 -13.4387 -13.3899 -13.3538
   -13.2210 -13.2180   0.1260   0.8621   5.4218   5.5735

          k =-0.1875-0.8125-0.0625 (  2712 PWs)   bands (ev):

   -13.7430 -13.7356 -13.6250 -13.5248 -13.5036 -13.4378 -13.4077 -13.3386
   -13.2230 -13.2156  -0.4811   1.6016   5.2730   5.6583

          k =-0.3125-0.6875-0.1875 (  2710 PWs)   bands (ev):

   -13.7470 -13.7297 -13.6265 -13.5349 -13.5010 -13.4500 -13.3813 -13.3424
   -13.2314 -13.2128  -0.8691   1.9934   5.2464   6.1605

          k =-0.0625-0.6875 0.0625 (  2714 PWs)   bands (ev):

   -13.7293 -13.7257 -13.6618 -13.5329 -13.4965 -13.4664 -13.3771 -13.2994
   -13.2367 -13.2328  -1.1182   2.4983   5.7814   5.9071

          k =-0.1875-0.5625-0.0625 (  2716 PWs)   bands (ev):

   -13.7281 -13.7211 -13.6615 -13.5593 -13.5105 -13.4450 -13.3536 -13.3042
   -13.2447 -13.2344  -1.5273   3.1526   5.8394   6.3585

          k =-0.0625-0.4375 0.0625 (  2713 PWs)   bands (ev):

   -13.7114 -13.7070 -13.6847 -13.5830 -13.5416 -13.4123 -13.3291 -13.2794
   -13.2653 -13.2538  -2.0138   4.2735   6.5912   6.6493

          k =-0.1875 0.1875 0.1875 (  2716 PWs)   bands (ev):

   -13.7027 -13.7027 -13.6750 -13.5934 -13.5934 -13.3358 -13.3358 -13.3120
   -13.2610 -13.2610  -2.3214   4.9313   7.5989   7.5989

          k =-0.3125 0.3125 0.0625 (  2713 PWs)   bands (ev):

   -13.7176 -13.7117 -13.6623 -13.5857 -13.5647 -13.3680 -13.3482 -13.3078
   -13.2602 -13.2417  -2.0249   4.0951   6.2718   7.5720

          k =-0.4375 0.4375-0.0625 (  2706 PWs)   bands (ev):

   -13.7334 -13.7281 -13.6329 -13.5684 -13.5339 -13.3944 -13.3626 -13.3447
   -13.2327 -13.2298  -1.4668   2.9115   5.3870   7.1007

          k = 0.4375-0.4375 0.8125 (  2708 PWs)   bands (ev):

   -13.7469 -13.7309 -13.6160 -13.5436 -13.5237 -13.3993 -13.3927 -13.3621
   -13.2275 -13.2143  -0.8317   1.8223   5.1631   6.6277

          k = 0.3125-0.3125 0.6875 (  2713 PWs)   bands (ev):

   -13.7469 -13.7273 -13.6267 -13.5362 -13.5202 -13.4263 -13.3813 -13.3453
   -13.2341 -13.2132  -0.8166   1.7975   5.3708   6.3608

          k = 0.1875-0.1875 0.5625 (  2718 PWs)   bands (ev):

   -13.7336 -13.7187 -13.6558 -13.5584 -13.5181 -13.4344 -13.3558 -13.3124
   -13.2469 -13.2283  -1.4484   2.9028   5.8983   6.3673

          k =-0.1875 0.4375 0.1875 (  2711 PWs)   bands (ev):

   -13.7229 -13.7110 -13.6659 -13.5771 -13.5480 -13.3973 -13.3397 -13.3075
   -13.2574 -13.2387  -1.8313   3.5815   6.5339   6.7452

          k =-0.3125 0.5625 0.0625 (  2716 PWs)   bands (ev):

   -13.7349 -13.7288 -13.6392 -13.5581 -13.5163 -13.4306 -13.3584 -13.3338
   -13.2340 -13.2272  -1.3603   2.7927   5.4293   6.5522

          k = 0.5625-0.3125 0.9375 (  2704 PWs)   bands (ev):

   -13.7513 -13.7384 -13.6031 -13.5322 -13.4911 -13.4508 -13.3927 -13.3675
   -13.2198 -13.2084  -0.7060   1.8584   4.8328   6.1100

          k = 0.4375-0.1875 0.8125 (  2706 PWs)   bands (ev):

   -13.7560 -13.7394 -13.5953 -13.5144 -13.4867 -13.4594 -13.4105 -13.3710
   -13.2189 -13.2024  -0.3654   1.4165   4.7987   5.8671

          k = 0.3125-0.0625 0.6875 (  2708 PWs)   bands (ev):

   -13.7438 -13.7359 -13.6234 -13.5342 -13.4857 -13.4670 -13.3815 -13.3445
   -13.2240 -13.2166  -0.9038   2.1424   5.1498   6.0041

          k =-0.1875 0.6875 0.1875 (  2716 PWs)   bands (ev):

   -13.7431 -13.7267 -13.6402 -13.5337 -13.4882 -13.4690 -13.3795 -13.3251
   -13.2355 -13.2172  -0.9832   2.2247   5.3824   6.0682

          k = 0.6875-0.1875 1.0625 (  2708 PWs)   bands (ev):

   -13.7499 -13.7419 -13.6028 -13.5069 -13.5036 -13.4523 -13.4103 -13.3618
   -13.2164 -13.2082  -0.3793   1.4949   4.9811   5.5854

          k = 0.5625-0.0625 0.9375 (  2709 PWs)   bands (ev):

   -13.7569 -13.7501 -13.5612 -13.5171 -13.4796 -13.4473 -13.4352 -13.3980
   -13.2071 -13.2002   0.2129   0.8710   4.7808   5.2240

          k = 0.4375 0.0625 0.8125 (  2710 PWs)   bands (ev):

   -13.7558 -13.7449 -13.5837 -13.5071 -13.4858 -13.4627 -13.4188 -13.3801
   -13.2127 -13.2023  -0.2465   1.3480   4.7468   5.5858

          k =-0.1875-1.0625 0.1875 (  2707 PWs)   bands (ev):

   -13.7538 -13.7361 -13.6005 -13.5366 -13.4741 -13.4379 -13.4254 -13.3644
   -13.2204 -13.2033   0.1063   0.9245   4.8417   5.7575

          k =-0.3125-0.9375 0.0625 (  2708 PWs)   bands (ev):

   -13.7531 -13.7455 -13.5788 -13.5366 -13.4750 -13.4415 -13.4229 -13.3837
   -13.2116 -13.2040   0.1860   0.8696   4.9142   5.3496

          k =-0.1875-0.8125 0.1875 (  2706 PWs)   bands (ev):

   -13.7500 -13.7327 -13.6201 -13.5093 -13.5046 -13.4512 -13.4076 -13.3444
   -13.2256 -13.2082  -0.4495   1.5509   5.0241   5.8623

          k =-0.3125 0.3125 0.3125 (  2695 PWs)   bands (ev):

   -13.7148 -13.7148 -13.6642 -13.5710 -13.5710 -13.3535 -13.3535 -13.3244
   -13.2477 -13.2477  -1.7572   3.1523   7.1711   7.1711

          k =-0.4375 0.4375 0.1875 (  2706 PWs)   bands (ev):

   -13.7290 -13.7257 -13.6408 -13.5672 -13.5432 -13.3834 -13.3582 -13.3433
   -13.2365 -13.2333  -1.4022   2.6043   5.8446   7.0765

          k = 0.4375-0.4375 1.0625 (  2706 PWs)   bands (ev):

   -13.7521 -13.7340 -13.6059 -13.5387 -13.5072 -13.4163 -13.4039 -13.3663
   -13.2235 -13.2083  -0.8160   1.9614   4.7702   6.5785

          k = 0.3125-0.3125 0.9375 (  2702 PWs)   bands (ev):

   -13.7602 -13.7360 -13.5979 -13.4863 -13.4862 -13.4694 -13.4310 -13.3675
   -13.2207 -13.1977  -0.2173   1.2788   4.5544   6.1066

          k =-0.3125 0.5625 0.3125 (  2709 PWs)   bands (ev):

   -13.7354 -13.7207 -13.6437 -13.5564 -13.5393 -13.3994 -13.3616 -13.3343
   -13.2430 -13.2256  -1.1784   2.1857   6.0444   6.5966

          k = 0.5625-0.3125 1.1875 (  2702 PWs)   bands (ev):

   -13.7494 -13.7337 -13.6118 -13.5357 -13.5091 -13.4314 -13.3873 -13.3612
   -13.2255 -13.2103  -0.7230   1.7544   5.0901   6.2354

          k = 0.4375-0.1875 1.0625 (  2706 PWs)   bands (ev):

   -13.7592 -13.7432 -13.5818 -13.4968 -13.4816 -13.4654 -13.4317 -13.3808
   -13.2140 -13.1984  -0.1056   1.1853   4.6259   5.6767

          k =-0.3125-1.1875 0.3125 (  2707 PWs)   bands (ev):

   -13.7556 -13.7327 -13.6099 -13.5107 -13.5012 -13.4511 -13.4067 -13.3582
   -13.2254 -13.2032  -0.4638   1.4825   4.8460   6.1933

          k =-0.4375 0.4375 0.4375 (  2725 PWs)   bands (ev):

   -13.7202 -13.7202 -13.6570 -13.5609 -13.5609 -13.3615 -13.3615 -13.3337
   -13.2429 -13.2429  -1.1333   1.8966   6.9362   6.9362

          k = 0.4375-0.4375 1.3125 (  2719 PWs)   bands (ev):

   -13.7377 -13.7262 -13.6326 -13.5500 -13.5429 -13.3791 -13.3784 -13.3531
   -13.2345 -13.2245  -0.8831   1.6992   5.7956   6.7167

     highest occupied level (ev):     8.0489

!    total energy              =    -318.48462001 Ry
     Harris-Foulkes estimate   =    -318.48462001 Ry
     estimated scf accuracy    <          1.8E-09 Ry

     The total energy is the sum of the following terms:

     one-electron contribution =    -153.79797327 Ry
     hartree contribution      =      94.44738956 Ry
     xc contribution           =     -86.05003357 Ry
     ewald contribution        =    -173.08400273 Ry

     convergence has been achieved in   7 iterations


     Computing stress (Cartesian axis) and pressure

          total   stress  (Ry/bohr**3)                   (kbar)     P=   20.74
   0.00014102   0.00000000   0.00000000         20.74      0.00      0.00
   0.00000000   0.00014102   0.00000000          0.00     20.74      0.00
   0.00000000   0.00000000   0.00014102          0.00      0.00     20.74


     Writing output data file sn.a.12.2.8.save

     init_run     :      1.20s CPU      1.24s WALL (       1 calls)
     electrons    :     17.56s CPU     18.11s WALL (       1 calls)
     stress       :      0.90s CPU      0.92s WALL (       1 calls)

     Called by init_run:
     wfcinit      :      0.75s CPU      0.77s WALL (       1 calls)
     potinit      :      0.06s CPU      0.06s WALL (       1 calls)

     Called by electrons:
     c_bands      :     14.14s CPU     14.49s WALL (       7 calls)
     sum_band     :      2.64s CPU      2.77s WALL (       7 calls)
     v_of_rho     :      0.35s CPU      0.36s WALL (       8 calls)
     newd         :      0.47s CPU      0.53s WALL (       8 calls)
     mix_rho      :      0.03s CPU      0.03s WALL (       7 calls)

     Called by c_bands:
     init_us_2    :      0.36s CPU      0.37s WALL (     960 calls)
     cegterg      :     13.48s CPU     13.82s WALL (     420 calls)

     Called by sum_band:
     sum_band:bec :      0.00s CPU      0.00s WALL (     420 calls)
     addusdens    :      0.49s CPU      0.58s WALL (       7 calls)

     Called by *egterg:
     h_psi        :     11.66s CPU     12.00s WALL (    1730 calls)
     s_psi        :      0.25s CPU      0.25s WALL (    1730 calls)
     g_psi        :      0.07s CPU      0.07s WALL (    1250 calls)
     cdiaghg      :      0.75s CPU      0.75s WALL (    1670 calls)

     Called by h_psi:
     h_psi:pot    :     11.54s CPU     11.87s WALL (    1730 calls)
     h_psi:calbec :      0.45s CPU      0.45s WALL (    1730 calls)
     vloc_psi     :     10.75s CPU     11.06s WALL (    1730 calls)
     add_vuspsi   :      0.34s CPU      0.35s WALL (    1730 calls)

     General routines
     calbec       :      0.57s CPU      0.58s WALL (    2210 calls)
     fft          :      0.17s CPU      0.19s WALL (     138 calls)
     ffts         :      0.01s CPU      0.01s WALL (      15 calls)
     fftw         :      9.83s CPU     10.09s WALL (   45630 calls)
     interpolate  :      0.04s CPU      0.04s WALL (      15 calls)
     davcio       :      0.00s CPU      0.01s WALL (      60 calls)

     Parallel routines
     fft_scatter  :      1.71s CPU      1.71s WALL (   45783 calls)

     PWSCF        :    19.79s CPU        20.44s WALL


   This run was terminated on:   1:33: 1  23Nov2017            

=------------------------------------------------------------------------------=
   JOB DONE.
=------------------------------------------------------------------------------=
