
     Program PWSCF v.6.1 (svn rev. 13369) starts on 23Nov2017 at  1:32:30 

     This program is part of the open-source Quantum ESPRESSO suite
     for quantum simulation of materials; please cite
         "P. Giannozzi et al., J. Phys.:Condens. Matter 21 395502 (2009);
          URL http://www.quantum-espresso.org", 
     in publications or presentations arising from this work. More details at
     http://www.quantum-espresso.org/quote

     Parallel version (MPI), running on     4 processors
     R & G space division:  proc/nbgrp/npool/nimage =       4
     Waiting for input...
     Reading input from standard input
     Message from routine read_cards :
     DEPRECATED: no units specified in ATOMIC_POSITIONS card
     Message from routine read_cards :
     ATOMIC_POSITIONS: units set to alat

     Current dimensions of program PWSCF are:
     Max number of different atomic species (ntypx) = 10
     Max number of k-points (npk) =  40000
     Max angular momentum in pseudopotentials (lmaxx) =  3

     Subspace diagonalization in iterative solution of the eigenvalue problem:
     a serial algorithm will be used


     Parallelization info
     --------------------
     sticks:   dense  smooth     PW     G-vecs:    dense   smooth      PW
     Min         513     256     78                15380     5397     923
     Max         514     257     79                15385     5400     925
     Sum        2053    1027    313                61527    21595    3695



     bravais-lattice index     =            2
     lattice parameter (alat)  =      12.2000  a.u.
     unit-cell volume          =     453.9620 (a.u.)^3
     number of atoms/cell      =            2
     number of atomic types    =            1
     number of electrons       =        28.00
     number of Kohn-Sham states=           14
     kinetic-energy cutoff     =      50.0000  Ry
     charge density cutoff     =     400.0000  Ry
     convergence threshold     =      1.0E-08
     mixing beta               =       0.7000
     number of iterations used =            8  plain     mixing
     Exchange-correlation      =  SLA  PW   PBX  PBC ( 1  4  3  4 0 0)

     celldm(1)=  12.200000  celldm(2)=   0.000000  celldm(3)=   0.000000
     celldm(4)=   0.000000  celldm(5)=   0.000000  celldm(6)=   0.000000

     crystal axes: (cart. coord. in units of alat)
               a(1) = (  -0.500000   0.000000   0.500000 )  
               a(2) = (   0.000000   0.500000   0.500000 )  
               a(3) = (  -0.500000   0.500000   0.000000 )  

     reciprocal axes: (cart. coord. in units 2 pi/alat)
               b(1) = ( -1.000000 -1.000000  1.000000 )  
               b(2) = (  1.000000  1.000000  1.000000 )  
               b(3) = ( -1.000000  1.000000 -1.000000 )  


     PseudoPot. # 1 for Sn read from file:
     /home/s1333534/quantum_espresso/qe-6.1/pseudo/sn_pbe_v1.4.uspp.F.UPF
     MD5 check sum: 469debedee59599fedebd795477fea03
     Pseudo is Ultrasoft + core correction, Zval = 14.0
     Generated by new atomic code, or converted to UPF format
     Using radial grid of  891 points,  6 beta functions with: 
                l(1) =   0
                l(2) =   0
                l(3) =   1
                l(4) =   1
                l(5) =   2
                l(6) =   2
     Q(r) pseudized with  8 coefficients,  rinner =    1.350   1.350   1.350
                                                       1.350   1.350

     atomic species   valence    mass     pseudopotential
        Sn            14.00   118.71000     Sn( 1.00)

     48 Sym. Ops., with inversion, found (24 have fractional translation)



   Cartesian axes

     site n.     atom                  positions (alat units)
         1           Sn  tau(   1) = (   0.0000000   0.0000000   0.0000000  )
         2           Sn  tau(   2) = (   0.2500000   0.2500000   0.2500000  )

     number of k points=    28
                       cart. coord. in units 2pi/alat
        k(    1) = (  -0.0833333   0.0833333   0.0833333), wk =   0.0185185
        k(    2) = (  -0.2500000   0.2500000  -0.0833333), wk =   0.0555556
        k(    3) = (  -0.4166667   0.4166667  -0.2500000), wk =   0.0555556
        k(    4) = (   0.4166667  -0.4166667   0.5833333), wk =   0.0555556
        k(    5) = (   0.2500000  -0.2500000   0.4166667), wk =   0.0555556
        k(    6) = (   0.0833333  -0.0833333   0.2500000), wk =   0.0555556
        k(    7) = (  -0.0833333   0.4166667   0.0833333), wk =   0.0555556
        k(    8) = (  -0.2500000   0.5833333  -0.0833333), wk =   0.1111111
        k(    9) = (   0.5833333  -0.2500000   0.7500000), wk =   0.1111111
        k(   10) = (   0.4166667  -0.0833333   0.5833333), wk =   0.1111111
        k(   11) = (   0.2500000   0.0833333   0.4166667), wk =   0.1111111
        k(   12) = (  -0.0833333   0.7500000   0.0833333), wk =   0.0555556
        k(   13) = (   0.7500000  -0.0833333   0.9166667), wk =   0.1111111
        k(   14) = (   0.5833333   0.0833333   0.7500000), wk =   0.1111111
        k(   15) = (   0.4166667   0.2500000   0.5833333), wk =   0.1111111
        k(   16) = (  -0.0833333  -0.9166667   0.0833333), wk =   0.0555556
        k(   17) = (  -0.2500000  -0.7500000  -0.0833333), wk =   0.1111111
        k(   18) = (  -0.0833333  -0.5833333   0.0833333), wk =   0.0555556
        k(   19) = (  -0.2500000   0.2500000   0.2500000), wk =   0.0185185
        k(   20) = (  -0.4166667   0.4166667   0.0833333), wk =   0.0555556
        k(   21) = (   0.4166667  -0.4166667   0.9166667), wk =   0.0555556
        k(   22) = (   0.2500000  -0.2500000   0.7500000), wk =   0.0555556
        k(   23) = (  -0.2500000   0.5833333   0.2500000), wk =   0.0555556
        k(   24) = (   0.5833333  -0.2500000   1.0833333), wk =   0.1111111
        k(   25) = (   0.4166667  -0.0833333   0.9166667), wk =   0.1111111
        k(   26) = (  -0.2500000  -1.0833333   0.2500000), wk =   0.0555556
        k(   27) = (  -0.4166667   0.4166667   0.4166667), wk =   0.0185185
        k(   28) = (   0.4166667  -0.4166667   1.2500000), wk =   0.0555556

     Dense  grid:    61527 G-vectors     FFT dimensions: (  60,  60,  60)

     Smooth grid:    21595 G-vectors     FFT dimensions: (  40,  40,  40)

     Estimated max dynamical RAM per process >      15.62MB

     Estimated total allocated dynamical RAM >      62.48MB

     Initial potential from superposition of free atoms

     starting charge   25.99991, renormalised to   28.00000
     Starting wfc are   18 randomized atomic wfcs

     total cpu time spent up to now is        0.9 secs

     per-process dynamical memory:    19.5 Mb

     Self-consistent Calculation

     iteration #  1     ecut=    50.00 Ry     beta=0.70
     Davidson diagonalization with overlap
     ethr =  1.00E-02,  avg # of iterations =  2.9

     total cpu time spent up to now is        2.1 secs

     total energy              =    -317.49133690 Ry
     Harris-Foulkes estimate   =    -319.52679035 Ry
     estimated scf accuracy    <       2.48095660 Ry

     iteration #  2     ecut=    50.00 Ry     beta=0.70
     Davidson diagonalization with overlap
     ethr =  8.86E-03,  avg # of iterations =  3.0

     total cpu time spent up to now is        3.5 secs

     total energy              =    -318.38938243 Ry
     Harris-Foulkes estimate   =    -318.70530201 Ry
     estimated scf accuracy    <       0.47188740 Ry

     iteration #  3     ecut=    50.00 Ry     beta=0.70
     Davidson diagonalization with overlap
     ethr =  1.69E-03,  avg # of iterations =  2.0

     total cpu time spent up to now is        4.6 secs

     total energy              =    -318.48359820 Ry
     Harris-Foulkes estimate   =    -318.48517262 Ry
     estimated scf accuracy    <       0.00288721 Ry

     iteration #  4     ecut=    50.00 Ry     beta=0.70
     Davidson diagonalization with overlap
     ethr =  1.03E-05,  avg # of iterations =  3.1

     total cpu time spent up to now is        5.9 secs

     total energy              =    -318.48449913 Ry
     Harris-Foulkes estimate   =    -318.48461974 Ry
     estimated scf accuracy    <       0.00017949 Ry

     iteration #  5     ecut=    50.00 Ry     beta=0.70
     Davidson diagonalization with overlap
     ethr =  6.41E-07,  avg # of iterations =  3.0

     total cpu time spent up to now is        7.2 secs

     total energy              =    -318.48455339 Ry
     Harris-Foulkes estimate   =    -318.48455404 Ry
     estimated scf accuracy    <       0.00000143 Ry

     iteration #  6     ecut=    50.00 Ry     beta=0.70
     Davidson diagonalization with overlap
     ethr =  5.10E-09,  avg # of iterations =  3.8

     total cpu time spent up to now is        8.5 secs

     total energy              =    -318.48455413 Ry
     Harris-Foulkes estimate   =    -318.48455419 Ry
     estimated scf accuracy    <       0.00000009 Ry

     iteration #  7     ecut=    50.00 Ry     beta=0.70
     Davidson diagonalization with overlap
     ethr =  3.32E-10,  avg # of iterations =  3.1

     total cpu time spent up to now is       10.1 secs

     End of self-consistent calculation

          k =-0.0833 0.0833 0.0833 (  2719 PWs)   bands (ev):

   -13.6889 -13.6889 -13.6813 -13.6141 -13.6141 -13.3144 -13.3144 -13.3027
   -13.2778 -13.2778  -2.5941   6.5518   7.9897   7.9897

          k =-0.2500 0.2500-0.0833 (  2722 PWs)   bands (ev):

   -13.7101 -13.7026 -13.6720 -13.5935 -13.5797 -13.3531 -13.3384 -13.3004
   -13.2695 -13.2497  -2.2359   4.7056   6.8311   7.7330

          k =-0.4167 0.4167-0.2500 (  2715 PWs)   bands (ev):

   -13.7228 -13.7225 -13.6500 -13.5677 -13.5525 -13.3735 -13.3555 -13.3353
   -13.2421 -13.2370  -1.4375   2.5588   6.3024   7.1077

          k = 0.4167-0.4167 0.5833 (  2714 PWs)   bands (ev):

   -13.7300 -13.7219 -13.6441 -13.5541 -13.5523 -13.3735 -13.3661 -13.3426
   -13.2398 -13.2314  -0.9712   1.7288   6.2977   6.7706

          k = 0.2500-0.2500 0.4167 (  2711 PWs)   bands (ev):

   -13.7224 -13.7124 -13.6611 -13.5741 -13.5563 -13.3802 -13.3446 -13.3186
   -13.2531 -13.2384  -1.7324   3.2075   6.7380   6.8744

          k = 0.0833-0.0833 0.2500 (  2713 PWs)   bands (ev):

   -13.7004 -13.6944 -13.6820 -13.6051 -13.5883 -13.3535 -13.3135 -13.2954
   -13.2778 -13.2602  -2.4127   5.5014   7.3979   7.4383

          k =-0.0833 0.4167 0.0833 (  2714 PWs)   bands (ev):

   -13.7121 -13.7055 -13.6817 -13.5853 -13.5477 -13.4037 -13.3272 -13.2845
   -13.2663 -13.2512  -2.0526   4.3443   6.6567   6.7363

          k =-0.2500 0.5833-0.0833 (  2719 PWs)   bands (ev):

   -13.7337 -13.7250 -13.6484 -13.5545 -13.5091 -13.4430 -13.3592 -13.3197
   -13.2384 -13.2276  -1.3736   2.8379   5.6006   6.3659

          k = 0.5833-0.2500 0.7500 (  2707 PWs)   bands (ev):

   -13.7514 -13.7330 -13.6105 -13.5270 -13.5088 -13.4340 -13.3947 -13.3599
   -13.2255 -13.2073  -0.5986   1.5896   5.0504   6.1887

          k = 0.4167-0.0833 0.5833 (  2710 PWs)   bands (ev):

   -13.7431 -13.7323 -13.6193 -13.5519 -13.5135 -13.4231 -13.3676 -13.3601
   -13.2260 -13.2184  -1.0940   2.3337   5.1028   6.5782

          k = 0.2500 0.0833 0.4167 (  2708 PWs)   bands (ev):

   -13.7208 -13.7139 -13.6617 -13.5796 -13.5497 -13.3928 -13.3404 -13.3093
   -13.2551 -13.2391  -1.8865   3.7771   6.1647   7.1200

          k =-0.0833 0.7500 0.0833 (  2716 PWs)   bands (ev):

   -13.7347 -13.7293 -13.6480 -13.5181 -13.5145 -13.4485 -13.3915 -13.3136
   -13.2307 -13.2249  -0.8246   2.0546   5.5723   5.8001

          k = 0.7500-0.0833 0.9167 (  2709 PWs)   bands (ev):

   -13.7506 -13.7403 -13.5944 -13.5404 -13.4784 -13.4342 -13.4205 -13.3687
   -13.2163 -13.2059   0.0591   0.9857   4.9798   5.5178

          k = 0.5833 0.0833 0.7500 (  2707 PWs)   bands (ev):

   -13.7586 -13.7385 -13.5923 -13.5027 -13.4808 -13.4640 -13.4246 -13.3722
   -13.2180 -13.1989  -0.2753   1.3461   4.6157   5.9637

          k = 0.4167 0.2500 0.5833 (  2710 PWs)   bands (ev):

   -13.7383 -13.7261 -13.6319 -13.5530 -13.5340 -13.3994 -13.3663 -13.3490
   -13.2349 -13.2224  -1.0356   2.0042   5.6898   6.6419

          k =-0.0833-0.9167 0.0833 (  2712 PWs)   bands (ev):

   -13.7404 -13.7353 -13.6134 -13.5661 -13.4761 -13.4329 -13.3985 -13.3504
   -13.2211 -13.2158   0.0168   0.9901   5.3479   5.6028

          k =-0.2500-0.7500-0.0833 (  2711 PWs)   bands (ev):

   -13.7446 -13.7346 -13.6252 -13.5194 -13.4950 -13.4629 -13.3935 -13.3389
   -13.2244 -13.2141  -0.7136   1.8989   5.1948   5.8050

          k =-0.0833-0.5833 0.0833 (  2708 PWs)   bands (ev):

   -13.7241 -13.7181 -13.6714 -13.5554 -13.4998 -13.4587 -13.3550 -13.2895
   -13.2470 -13.2390  -1.5199   3.1843   6.0149   6.1855

          k =-0.2500 0.2500 0.2500 (  2710 PWs)   bands (ev):

   -13.7094 -13.7094 -13.6695 -13.5806 -13.5806 -13.3459 -13.3459 -13.3174
   -13.2532 -13.2532  -2.0658   4.0020   7.3667   7.3667

          k =-0.4167 0.4167 0.0833 (  2702 PWs)   bands (ev):

   -13.7289 -13.7261 -13.6388 -13.5711 -13.5393 -13.3886 -13.3596 -13.3370
   -13.2374 -13.2313  -1.5615   3.0556   5.5716   7.1822

          k = 0.4167-0.4167 0.9167 (  2706 PWs)   bands (ev):

   -13.7535 -13.7339 -13.6041 -13.5316 -13.5051 -13.4168 -13.4129 -13.3662
   -13.2228 -13.2057  -0.7105   1.8158   4.7425   6.5000

          k = 0.2500-0.2500 0.7500 (  2708 PWs)   bands (ev):

   -13.7507 -13.7298 -13.6220 -13.5208 -13.4915 -13.4627 -13.3934 -13.3441
   -13.2296 -13.2076  -0.6588   1.7443   5.0681   6.0952

          k =-0.2500 0.5833 0.2500 (  2710 PWs)   bands (ev):

   -13.7377 -13.7206 -13.6450 -13.5533 -13.5239 -13.4230 -13.3615 -13.3262
   -13.2428 -13.2226  -1.2517   2.4553   5.8107   6.4243

          k = 0.5833-0.2500 1.0833 (  2705 PWs)   bands (ev):

   -13.7526 -13.7404 -13.5972 -13.5208 -13.4804 -13.4660 -13.4019 -13.3694
   -13.2170 -13.2056  -0.5146   1.6347   4.8279   5.8413

          k = 0.4167-0.0833 0.9167 (  2709 PWs)   bands (ev):

   -13.7568 -13.7476 -13.5693 -13.5112 -13.4838 -13.4458 -13.4356 -13.3907
   -13.2090 -13.1998   0.1047   0.9776   4.7570   5.3368

          k =-0.2500-1.0833 0.2500 (  2701 PWs)   bands (ev):

   -13.7580 -13.7356 -13.5998 -13.5030 -13.4827 -13.4551 -13.4309 -13.3646
   -13.2205 -13.1987  -0.0631   1.1130   4.6589   5.9233

          k =-0.4167 0.4167 0.4167 (  2725 PWs)   bands (ev):

   -13.7195 -13.7195 -13.6575 -13.5615 -13.5615 -13.3605 -13.3605 -13.3323
   -13.2431 -13.2431  -1.2185   2.0445   6.9598   6.9598

          k = 0.4167-0.4167 1.2500 (  2713 PWs)   bands (ev):

   -13.7445 -13.7288 -13.6211 -13.5415 -13.5311 -13.3936 -13.3901 -13.3576
   -13.2301 -13.2160  -0.7880   1.6884   5.3705   6.5995

     highest occupied level (ev):     7.9897

!    total energy              =    -318.48455417 Ry
     Harris-Foulkes estimate   =    -318.48455417 Ry
     estimated scf accuracy    <          1.9E-09 Ry

     The total energy is the sum of the following terms:

     one-electron contribution =    -153.79847690 Ry
     hartree contribution      =      94.44802061 Ry
     xc contribution           =     -86.05009515 Ry
     ewald contribution        =    -173.08400273 Ry

     convergence has been achieved in   7 iterations


     Computing stress (Cartesian axis) and pressure

          total   stress  (Ry/bohr**3)                   (kbar)     P=   20.63
   0.00014023   0.00000000   0.00000000         20.63      0.00      0.00
   0.00000000   0.00014023  -0.00000000          0.00     20.63     -0.00
   0.00000000  -0.00000000   0.00014023          0.00     -0.00     20.63


     Writing output data file sn.a.12.2.6.save

     init_run     :      0.78s CPU      0.81s WALL (       1 calls)
     electrons    :      8.89s CPU      9.28s WALL (       1 calls)
     stress       :      0.72s CPU      0.75s WALL (       1 calls)

     Called by init_run:
     wfcinit      :      0.34s CPU      0.35s WALL (       1 calls)
     potinit      :      0.05s CPU      0.06s WALL (       1 calls)

     Called by electrons:
     c_bands      :      6.50s CPU      6.70s WALL (       7 calls)
     sum_band     :      1.60s CPU      1.73s WALL (       7 calls)
     v_of_rho     :      0.36s CPU      0.37s WALL (       8 calls)
     newd         :      0.48s CPU      0.54s WALL (       8 calls)
     mix_rho      :      0.03s CPU      0.03s WALL (       7 calls)

     Called by c_bands:
     init_us_2    :      0.17s CPU      0.17s WALL (     448 calls)
     cegterg      :      6.19s CPU      6.39s WALL (     196 calls)

     Called by sum_band:
     sum_band:bec :      0.00s CPU      0.00s WALL (     196 calls)
     addusdens    :      0.51s CPU      0.60s WALL (       7 calls)

     Called by *egterg:
     h_psi        :      5.37s CPU      5.57s WALL (     808 calls)
     s_psi        :      0.09s CPU      0.09s WALL (     808 calls)
     g_psi        :      0.03s CPU      0.03s WALL (     584 calls)
     cdiaghg      :      0.36s CPU      0.36s WALL (     780 calls)

     Called by h_psi:
     h_psi:pot    :      5.34s CPU      5.53s WALL (     808 calls)
     h_psi:calbec :      0.22s CPU      0.22s WALL (     808 calls)
     vloc_psi     :      5.01s CPU      5.19s WALL (     808 calls)
     add_vuspsi   :      0.11s CPU      0.11s WALL (     808 calls)

     General routines
     calbec       :      0.28s CPU      0.28s WALL (    1032 calls)
     fft          :      0.19s CPU      0.20s WALL (     138 calls)
     ffts         :      0.01s CPU      0.01s WALL (      15 calls)
     fftw         :      4.76s CPU      4.90s WALL (   21300 calls)
     interpolate  :      0.03s CPU      0.03s WALL (      15 calls)
     davcio       :      0.00s CPU      0.00s WALL (      28 calls)

     Parallel routines
     fft_scatter  :      1.00s CPU      1.04s WALL (   21453 calls)

     PWSCF        :    10.51s CPU        10.97s WALL


   This run was terminated on:   1:32:41  23Nov2017            

=------------------------------------------------------------------------------=
   JOB DONE.
=------------------------------------------------------------------------------=
