
     Program PWSCF v.6.1 (svn rev. 13369) starts on 23Nov2017 at  1:35:55 

     This program is part of the open-source Quantum ESPRESSO suite
     for quantum simulation of materials; please cite
         "P. Giannozzi et al., J. Phys.:Condens. Matter 21 395502 (2009);
          URL http://www.quantum-espresso.org", 
     in publications or presentations arising from this work. More details at
     http://www.quantum-espresso.org/quote

     Parallel version (MPI), running on     4 processors
     R & G space division:  proc/nbgrp/npool/nimage =       4
     Waiting for input...
     Reading input from standard input
     Message from routine read_cards :
     DEPRECATED: no units specified in ATOMIC_POSITIONS card
     Message from routine read_cards :
     ATOMIC_POSITIONS: units set to alat

     Current dimensions of program PWSCF are:
     Max number of different atomic species (ntypx) = 10
     Max number of k-points (npk) =  40000
     Max angular momentum in pseudopotentials (lmaxx) =  3

     Subspace diagonalization in iterative solution of the eigenvalue problem:
     a serial algorithm will be used


     Parallelization info
     --------------------
     sticks:   dense  smooth     PW     G-vecs:    dense   smooth      PW
     Min         513     256     78                15380     5397     929
     Max         514     257     79                15385     5400     931
     Sum        2053    1027    313                61527    21595    3719



     bravais-lattice index     =            2
     lattice parameter (alat)  =      12.2000  a.u.
     unit-cell volume          =     453.9620 (a.u.)^3
     number of atoms/cell      =            2
     number of atomic types    =            1
     number of electrons       =        28.00
     number of Kohn-Sham states=           14
     kinetic-energy cutoff     =      50.0000  Ry
     charge density cutoff     =     400.0000  Ry
     convergence threshold     =      1.0E-08
     mixing beta               =       0.7000
     number of iterations used =            8  plain     mixing
     Exchange-correlation      =  SLA  PW   PBX  PBC ( 1  4  3  4 0 0)

     celldm(1)=  12.200000  celldm(2)=   0.000000  celldm(3)=   0.000000
     celldm(4)=   0.000000  celldm(5)=   0.000000  celldm(6)=   0.000000

     crystal axes: (cart. coord. in units of alat)
               a(1) = (  -0.500000   0.000000   0.500000 )  
               a(2) = (   0.000000   0.500000   0.500000 )  
               a(3) = (  -0.500000   0.500000   0.000000 )  

     reciprocal axes: (cart. coord. in units 2 pi/alat)
               b(1) = ( -1.000000 -1.000000  1.000000 )  
               b(2) = (  1.000000  1.000000  1.000000 )  
               b(3) = ( -1.000000  1.000000 -1.000000 )  


     PseudoPot. # 1 for Sn read from file:
     /home/s1333534/quantum_espresso/qe-6.1/pseudo/sn_pbe_v1.4.uspp.F.UPF
     MD5 check sum: 469debedee59599fedebd795477fea03
     Pseudo is Ultrasoft + core correction, Zval = 14.0
     Generated by new atomic code, or converted to UPF format
     Using radial grid of  891 points,  6 beta functions with: 
                l(1) =   0
                l(2) =   0
                l(3) =   1
                l(4) =   1
                l(5) =   2
                l(6) =   2
     Q(r) pseudized with  8 coefficients,  rinner =    1.350   1.350   1.350
                                                       1.350   1.350

     atomic species   valence    mass     pseudopotential
        Sn            14.00   118.71000     Sn( 1.00)

     48 Sym. Ops., with inversion, found (24 have fractional translation)



   Cartesian axes

     site n.     atom                  positions (alat units)
         1           Sn  tau(   1) = (   0.0000000   0.0000000   0.0000000  )
         2           Sn  tau(   2) = (   0.2500000   0.2500000   0.2500000  )

     number of k points=   408

     Number of k-points >= 100: set verbosity='high' to print them.

     Dense  grid:    61527 G-vectors     FFT dimensions: (  60,  60,  60)

     Smooth grid:    21595 G-vectors     FFT dimensions: (  40,  40,  40)

     Estimated max dynamical RAM per process >      70.58MB

     Estimated total allocated dynamical RAM >     282.30MB

     Initial potential from superposition of free atoms

     starting charge   25.99991, renormalised to   28.00000
     Starting wfc are   18 randomized atomic wfcs

     total cpu time spent up to now is        5.8 secs

     per-process dynamical memory:    77.4 Mb

     Self-consistent Calculation

     iteration #  1     ecut=    50.00 Ry     beta=0.70
     Davidson diagonalization with overlap
     ethr =  1.00E-02,  avg # of iterations =  2.9

     total cpu time spent up to now is       21.0 secs

     total energy              =    -317.49125668 Ry
     Harris-Foulkes estimate   =    -319.52683285 Ry
     estimated scf accuracy    <       2.48109139 Ry

     iteration #  2     ecut=    50.00 Ry     beta=0.70
     Davidson diagonalization with overlap
     ethr =  8.86E-03,  avg # of iterations =  3.0

     total cpu time spent up to now is       37.3 secs

     total energy              =    -318.38943581 Ry
     Harris-Foulkes estimate   =    -318.70543627 Ry
     estimated scf accuracy    <       0.47199104 Ry

     iteration #  3     ecut=    50.00 Ry     beta=0.70
     Davidson diagonalization with overlap
     ethr =  1.69E-03,  avg # of iterations =  2.0

     total cpu time spent up to now is       51.6 secs

     total energy              =    -318.48369494 Ry
     Harris-Foulkes estimate   =    -318.48526735 Ry
     estimated scf accuracy    <       0.00288136 Ry

     iteration #  4     ecut=    50.00 Ry     beta=0.70
     Davidson diagonalization with overlap
     ethr =  1.03E-05,  avg # of iterations =  3.0

     total cpu time spent up to now is       67.0 secs

     total energy              =    -318.48459271 Ry
     Harris-Foulkes estimate   =    -318.48471218 Ry
     estimated scf accuracy    <       0.00017790 Ry

     iteration #  5     ecut=    50.00 Ry     beta=0.70
     Davidson diagonalization with overlap
     ethr =  6.35E-07,  avg # of iterations =  3.0

     total cpu time spent up to now is       82.5 secs

     total energy              =    -318.48464641 Ry
     Harris-Foulkes estimate   =    -318.48464700 Ry
     estimated scf accuracy    <       0.00000134 Ry

     iteration #  6     ecut=    50.00 Ry     beta=0.70
     Davidson diagonalization with overlap
     ethr =  4.79E-09,  avg # of iterations =  3.9

     total cpu time spent up to now is       99.7 secs

     total energy              =    -318.48464717 Ry
     Harris-Foulkes estimate   =    -318.48464723 Ry
     estimated scf accuracy    <       0.00000010 Ry

     iteration #  7     ecut=    50.00 Ry     beta=0.70
     Davidson diagonalization with overlap
     ethr =  3.41E-10,  avg # of iterations =  3.0

     total cpu time spent up to now is      115.4 secs

     End of self-consistent calculation

     Number of k-points >= 100: set verbosity='high' to print the bands.

     highest occupied level (ev):     8.1118

!    total energy              =    -318.48464720 Ry
     Harris-Foulkes estimate   =    -318.48464720 Ry
     estimated scf accuracy    <          1.9E-09 Ry

     The total energy is the sum of the following terms:

     one-electron contribution =    -153.79781919 Ry
     hartree contribution      =      94.44718500 Ry
     xc contribution           =     -86.05001028 Ry
     ewald contribution        =    -173.08400273 Ry

     convergence has been achieved in   7 iterations


     Computing stress (Cartesian axis) and pressure

          total   stress  (Ry/bohr**3)                   (kbar)     P=   20.77
   0.00014118   0.00000000   0.00000000         20.77      0.00      0.00
   0.00000000   0.00014118   0.00000000          0.00     20.77      0.00
  -0.00000000   0.00000000   0.00014118         -0.00      0.00     20.77


     Writing output data file sn.a.12.2.16.save

     init_run     :      5.60s CPU      5.78s WALL (       1 calls)
     electrons    :    106.66s CPU    109.54s WALL (       1 calls)
     stress       :      3.06s CPU      3.11s WALL (       1 calls)

     Called by init_run:
     wfcinit      :      5.13s CPU      5.29s WALL (       1 calls)
     potinit      :      0.06s CPU      0.06s WALL (       1 calls)

     Called by electrons:
     c_bands      :     91.39s CPU     93.75s WALL (       7 calls)
     sum_band     :     14.48s CPU     14.94s WALL (       7 calls)
     v_of_rho     :      0.36s CPU      0.37s WALL (       8 calls)
     newd         :      0.47s CPU      0.54s WALL (       8 calls)
     mix_rho      :      0.03s CPU      0.03s WALL (       7 calls)

     Called by c_bands:
     init_us_2    :      2.49s CPU      2.54s WALL (    6528 calls)
     cegterg      :     87.05s CPU     89.37s WALL (    2856 calls)

     Called by sum_band:
     sum_band:bec :      0.02s CPU      0.03s WALL (    2856 calls)
     addusdens    :      0.50s CPU      0.59s WALL (       7 calls)

     Called by *egterg:
     h_psi        :     75.71s CPU     77.99s WALL (   11734 calls)
     s_psi        :      1.31s CPU      1.33s WALL (   11734 calls)
     g_psi        :      0.48s CPU      0.48s WALL (    8470 calls)
     cdiaghg      :      5.01s CPU      5.03s WALL (   11326 calls)

     Called by h_psi:
     h_psi:pot    :     75.16s CPU     77.40s WALL (   11734 calls)
     h_psi:calbec :      3.12s CPU      3.17s WALL (   11734 calls)
     vloc_psi     :     70.39s CPU     72.53s WALL (   11734 calls)
     add_vuspsi   :      1.63s CPU      1.66s WALL (   11734 calls)

     General routines
     calbec       :      4.09s CPU      4.16s WALL (   14998 calls)
     fft          :      0.19s CPU      0.20s WALL (     138 calls)
     ffts         :      0.01s CPU      0.01s WALL (      15 calls)
     fftw         :     65.75s CPU     68.07s WALL (  310564 calls)
     interpolate  :      0.03s CPU      0.03s WALL (      15 calls)
     davcio       :      0.01s CPU      0.04s WALL (     408 calls)

     Parallel routines
     fft_scatter  :     11.15s CPU     10.81s WALL (  310717 calls)

     PWSCF        :  1m55.78s CPU     1m58.96s WALL


   This run was terminated on:   1:37:54  23Nov2017            

=------------------------------------------------------------------------------=
   JOB DONE.
=------------------------------------------------------------------------------=
