
     Program PWSCF v.6.1 (svn rev. 13369) starts on 12Nov2017 at 13: 3: 2 

     This program is part of the open-source Quantum ESPRESSO suite
     for quantum simulation of materials; please cite
         "P. Giannozzi et al., J. Phys.:Condens. Matter 21 395502 (2009);
          URL http://www.quantum-espresso.org", 
     in publications or presentations arising from this work. More details at
     http://www.quantum-espresso.org/quote

     Parallel version (MPI), running on     4 processors
     R & G space division:  proc/nbgrp/npool/nimage =       4
     Waiting for input...
     Reading input from standard input
     Message from routine read_cards :
     DEPRECATED: no units specified in ATOMIC_POSITIONS card
     Message from routine read_cards :
     ATOMIC_POSITIONS: units set to alat

     Current dimensions of program PWSCF are:
     Max number of different atomic species (ntypx) = 10
     Max number of k-points (npk) =  40000
     Max angular momentum in pseudopotentials (lmaxx) =  3

     Subspace diagonalization in iterative solution of the eigenvalue problem:
     a serial algorithm will be used


     Parallelization info
     --------------------
     sticks:   dense  smooth     PW     G-vecs:    dense   smooth      PW
     Min         892     447    127                35158    12438    1947
     Max         893     448    128                35161    12441    1951
     Sum        3571    1789    511               140639    49757    7799



     bravais-lattice index     =            2
     lattice parameter (alat)  =      12.5650  a.u.
     unit-cell volume          =     495.9381 (a.u.)^3
     number of atoms/cell      =            2
     number of atomic types    =            1
     number of electrons       =        28.00
     number of Kohn-Sham states=           14
     kinetic-energy cutoff     =      82.0000  Ry
     charge density cutoff     =     656.0000  Ry
     convergence threshold     =      1.0E-08
     mixing beta               =       0.7000
     number of iterations used =            8  plain     mixing
     Exchange-correlation      =  SLA  PW   PBX  PBC ( 1  4  3  4 0 0)

     celldm(1)=  12.565000  celldm(2)=   0.000000  celldm(3)=   0.000000
     celldm(4)=   0.000000  celldm(5)=   0.000000  celldm(6)=   0.000000

     crystal axes: (cart. coord. in units of alat)
               a(1) = (  -0.500000   0.000000   0.500000 )  
               a(2) = (   0.000000   0.500000   0.500000 )  
               a(3) = (  -0.500000   0.500000   0.000000 )  

     reciprocal axes: (cart. coord. in units 2 pi/alat)
               b(1) = ( -1.000000 -1.000000  1.000000 )  
               b(2) = (  1.000000  1.000000  1.000000 )  
               b(3) = ( -1.000000  1.000000 -1.000000 )  


     PseudoPot. # 1 for Sn read from file:
     /home/s1333534/quantum_espresso/qe-6.1/pseudo/sn_pbe_v1.4.uspp.F.UPF
     MD5 check sum: 469debedee59599fedebd795477fea03
     Pseudo is Ultrasoft + core correction, Zval = 14.0
     Generated by new atomic code, or converted to UPF format
     Using radial grid of  891 points,  6 beta functions with: 
                l(1) =   0
                l(2) =   0
                l(3) =   1
                l(4) =   1
                l(5) =   2
                l(6) =   2
     Q(r) pseudized with  8 coefficients,  rinner =    1.350   1.350   1.350
                                                       1.350   1.350

     atomic species   valence    mass     pseudopotential
        Sn            14.00   118.71000     Sn( 1.00)

     24 Sym. Ops. (no inversion) found
          (note: 24 additional sym.ops. were found but ignored
           their fractional translations are incommensurate with FFT grid)


   Cartesian axes

     site n.     atom                  positions (alat units)
         1           Sn  tau(   1) = (   0.0000000   0.0000000   0.0000000  )
         2           Sn  tau(   2) = (   0.2500000   0.2500000   0.2500000  )

     number of k points=    60
                       cart. coord. in units 2pi/alat
        k(    1) = (  -0.0625000   0.0625000   0.0625000), wk =   0.0078125
        k(    2) = (  -0.1875000   0.1875000  -0.0625000), wk =   0.0234375
        k(    3) = (  -0.3125000   0.3125000  -0.1875000), wk =   0.0234375
        k(    4) = (  -0.4375000   0.4375000  -0.3125000), wk =   0.0234375
        k(    5) = (   0.4375000  -0.4375000   0.5625000), wk =   0.0234375
        k(    6) = (   0.3125000  -0.3125000   0.4375000), wk =   0.0234375
        k(    7) = (   0.1875000  -0.1875000   0.3125000), wk =   0.0234375
        k(    8) = (   0.0625000  -0.0625000   0.1875000), wk =   0.0234375
        k(    9) = (  -0.0625000   0.3125000   0.0625000), wk =   0.0234375
        k(   10) = (  -0.1875000   0.4375000  -0.0625000), wk =   0.0468750
        k(   11) = (  -0.3125000   0.5625000  -0.1875000), wk =   0.0468750
        k(   12) = (   0.5625000  -0.3125000   0.6875000), wk =   0.0468750
        k(   13) = (   0.4375000  -0.1875000   0.5625000), wk =   0.0468750
        k(   14) = (   0.3125000  -0.0625000   0.4375000), wk =   0.0468750
        k(   15) = (   0.1875000   0.0625000   0.3125000), wk =   0.0468750
        k(   16) = (  -0.0625000   0.5625000   0.0625000), wk =   0.0234375
        k(   17) = (  -0.1875000   0.6875000  -0.0625000), wk =   0.0468750
        k(   18) = (   0.6875000  -0.1875000   0.8125000), wk =   0.0468750
        k(   19) = (   0.5625000  -0.0625000   0.6875000), wk =   0.0468750
        k(   20) = (   0.4375000   0.0625000   0.5625000), wk =   0.0468750
        k(   21) = (   0.3125000   0.1875000   0.4375000), wk =   0.0468750
        k(   22) = (  -0.0625000   0.8125000   0.0625000), wk =   0.0234375
        k(   23) = (   0.8125000  -0.0625000   0.9375000), wk =   0.0468750
        k(   24) = (   0.6875000   0.0625000   0.8125000), wk =   0.0468750
        k(   25) = (   0.5625000   0.1875000   0.6875000), wk =   0.0468750
        k(   26) = (   0.4375000   0.3125000   0.5625000), wk =   0.0468750
        k(   27) = (  -0.0625000  -0.9375000   0.0625000), wk =   0.0234375
        k(   28) = (  -0.1875000  -0.8125000  -0.0625000), wk =   0.0468750
        k(   29) = (  -0.3125000  -0.6875000  -0.1875000), wk =   0.0468750
        k(   30) = (  -0.0625000  -0.6875000   0.0625000), wk =   0.0234375
        k(   31) = (  -0.1875000  -0.5625000  -0.0625000), wk =   0.0468750
        k(   32) = (  -0.0625000  -0.4375000   0.0625000), wk =   0.0234375
        k(   33) = (  -0.1875000   0.1875000   0.1875000), wk =   0.0078125
        k(   34) = (  -0.3125000   0.3125000   0.0625000), wk =   0.0234375
        k(   35) = (  -0.4375000   0.4375000  -0.0625000), wk =   0.0234375
        k(   36) = (   0.4375000  -0.4375000   0.8125000), wk =   0.0234375
        k(   37) = (   0.3125000  -0.3125000   0.6875000), wk =   0.0234375
        k(   38) = (   0.1875000  -0.1875000   0.5625000), wk =   0.0234375
        k(   39) = (  -0.1875000   0.4375000   0.1875000), wk =   0.0234375
        k(   40) = (  -0.3125000   0.5625000   0.0625000), wk =   0.0468750
        k(   41) = (   0.5625000  -0.3125000   0.9375000), wk =   0.0468750
        k(   42) = (   0.4375000  -0.1875000   0.8125000), wk =   0.0468750
        k(   43) = (   0.3125000  -0.0625000   0.6875000), wk =   0.0468750
        k(   44) = (  -0.1875000   0.6875000   0.1875000), wk =   0.0234375
        k(   45) = (   0.6875000  -0.1875000   1.0625000), wk =   0.0468750
        k(   46) = (   0.5625000  -0.0625000   0.9375000), wk =   0.0468750
        k(   47) = (   0.4375000   0.0625000   0.8125000), wk =   0.0468750
        k(   48) = (  -0.1875000  -1.0625000   0.1875000), wk =   0.0234375
        k(   49) = (  -0.3125000  -0.9375000   0.0625000), wk =   0.0468750
        k(   50) = (  -0.1875000  -0.8125000   0.1875000), wk =   0.0234375
        k(   51) = (  -0.3125000   0.3125000   0.3125000), wk =   0.0078125
        k(   52) = (  -0.4375000   0.4375000   0.1875000), wk =   0.0234375
        k(   53) = (   0.4375000  -0.4375000   1.0625000), wk =   0.0234375
        k(   54) = (   0.3125000  -0.3125000   0.9375000), wk =   0.0234375
        k(   55) = (  -0.3125000   0.5625000   0.3125000), wk =   0.0234375
        k(   56) = (   0.5625000  -0.3125000   1.1875000), wk =   0.0468750
        k(   57) = (   0.4375000  -0.1875000   1.0625000), wk =   0.0468750
        k(   58) = (  -0.3125000  -1.1875000   0.3125000), wk =   0.0234375
        k(   59) = (  -0.4375000   0.4375000   0.4375000), wk =   0.0078125
        k(   60) = (   0.4375000  -0.4375000   1.3125000), wk =   0.0234375

     Dense  grid:   140639 G-vectors     FFT dimensions: (  75,  75,  75)

     Smooth grid:    49757 G-vectors     FFT dimensions: (  54,  54,  54)

     Estimated max dynamical RAM per process >      45.11MB

     Estimated total allocated dynamical RAM >     180.45MB

     Initial potential from superposition of free atoms

     starting charge   25.99991, renormalised to   28.00000
     Starting wfc are   18 randomized atomic wfcs

     total cpu time spent up to now is        3.0 secs

     per-process dynamical memory:    46.0 Mb

     Self-consistent Calculation

     iteration #  1     ecut=    82.00 Ry     beta=0.70
     Davidson diagonalization with overlap
     ethr =  1.00E-02,  avg # of iterations =  2.6

     total cpu time spent up to now is       10.0 secs

     total energy              =    -317.49416371 Ry
     Harris-Foulkes estimate   =    -319.56040933 Ry
     estimated scf accuracy    <       2.51771047 Ry

     iteration #  2     ecut=    82.00 Ry     beta=0.70
     Davidson diagonalization with overlap
     ethr =  8.99E-03,  avg # of iterations =  3.0

     total cpu time spent up to now is       17.6 secs

     total energy              =    -318.40546774 Ry
     Harris-Foulkes estimate   =    -318.72435524 Ry
     estimated scf accuracy    <       0.47533827 Ry

     iteration #  3     ecut=    82.00 Ry     beta=0.70
     Davidson diagonalization with overlap
     ethr =  1.70E-03,  avg # of iterations =  2.0

     total cpu time spent up to now is       24.4 secs

     total energy              =    -318.50087367 Ry
     Harris-Foulkes estimate   =    -318.50238572 Ry
     estimated scf accuracy    <       0.00292125 Ry

     iteration #  4     ecut=    82.00 Ry     beta=0.70
     Davidson diagonalization with overlap
     ethr =  1.04E-05,  avg # of iterations =  3.0

     total cpu time spent up to now is       31.5 secs

     total energy              =    -318.50177040 Ry
     Harris-Foulkes estimate   =    -318.50188360 Ry
     estimated scf accuracy    <       0.00017525 Ry

     iteration #  5     ecut=    82.00 Ry     beta=0.70
     Davidson diagonalization with overlap
     ethr =  6.26E-07,  avg # of iterations =  3.0

     total cpu time spent up to now is       38.8 secs

     total energy              =    -318.50182524 Ry
     Harris-Foulkes estimate   =    -318.50182576 Ry
     estimated scf accuracy    <       0.00000181 Ry

     iteration #  6     ecut=    82.00 Ry     beta=0.70
     Davidson diagonalization with overlap
     ethr =  6.47E-09,  avg # of iterations =  3.7

     total cpu time spent up to now is       46.1 secs

     total energy              =    -318.50182601 Ry
     Harris-Foulkes estimate   =    -318.50182605 Ry
     estimated scf accuracy    <       0.00000010 Ry

     iteration #  7     ecut=    82.00 Ry     beta=0.70
     Davidson diagonalization with overlap
     ethr =  3.54E-10,  avg # of iterations =  3.1

     total cpu time spent up to now is       53.8 secs

     End of self-consistent calculation

          k =-0.0625 0.0625 0.0625 (  6216 PWs)   bands (ev):

   -14.6254 -14.6254 -14.6219 -14.5699 -14.5699 -14.3294 -14.3294 -14.3200
   -14.3082 -14.3082  -3.1478   5.4066   6.9676   6.9676

          k =-0.1875 0.1875-0.0625 (  6200 PWs)   bands (ev):

   -14.6372 -14.6323 -14.6185 -14.5589 -14.5521 -14.3524 -14.3432 -14.3178
   -14.3026 -14.2901  -2.9625   4.2353   6.2874   6.8301

          k =-0.3125 0.3125-0.1875 (  6210 PWs)   bands (ev):

   -14.6484 -14.6454 -14.6074 -14.5412 -14.5315 -14.3709 -14.3592 -14.3331
   -14.2855 -14.2781  -2.5222   2.6671   5.7943   6.4077

          k =-0.4375 0.4375-0.3125 (  6218 PWs)   bands (ev):

   -14.6540 -14.6535 -14.5967 -14.5281 -14.5208 -14.3784 -14.3691 -14.3483
   -14.2745 -14.2731  -1.9411   1.3657   5.5484   6.0489

          k = 0.4375-0.4375 0.5625 (  6229 PWs)   bands (ev):

   -14.6572 -14.6533 -14.5939 -14.5219 -14.5211 -14.3773 -14.3750 -14.3515
   -14.2740 -14.2701  -1.6837   0.9219   5.5481   5.8754

          k = 0.3125-0.3125 0.4375 (  6217 PWs)   bands (ev):

   -14.6545 -14.6490 -14.6011 -14.5312 -14.5226 -14.3804 -14.3651 -14.3414
   -14.2799 -14.2725  -2.1332   1.7411   5.7775   5.9250

          k = 0.1875-0.1875 0.3125 (  6211 PWs)   bands (ev):

   -14.6454 -14.6403 -14.6129 -14.5472 -14.5363 -14.3707 -14.3498 -14.3269
   -14.2908 -14.2819  -2.6932   3.1830   6.1944   6.1950

          k = 0.0625-0.0625 0.1875 (  6205 PWs)   bands (ev):

   -14.6313 -14.6285 -14.6224 -14.5656 -14.5574 -14.3506 -14.3298 -14.3166
   -14.3074 -14.2968  -3.0545   4.7489   6.6222   6.6551

          k =-0.0625 0.3125 0.0625 (  6203 PWs)   bands (ev):

   -14.6378 -14.6343 -14.6240 -14.5567 -14.5368 -14.3774 -14.3355 -14.3096
   -14.3019 -14.2900  -2.8686   3.9462   6.1520   6.1673

          k =-0.1875 0.4375-0.0625 (  6214 PWs)   bands (ev):

   -14.6507 -14.6457 -14.6113 -14.5407 -14.5132 -14.4025 -14.3523 -14.3203
   -14.2871 -14.2767  -2.5080   2.8394   5.3807   5.9294

          k =-0.3125 0.5625-0.1875 (  6225 PWs)   bands (ev):

   -14.6648 -14.6544 -14.5891 -14.5229 -14.4992 -14.4133 -14.3711 -14.3459
   -14.2738 -14.2619  -1.9465   1.5989   4.8732   5.6293

          k = 0.5625-0.3125 0.6875 (  6227 PWs)   bands (ev):

   -14.6712 -14.6587 -14.5737 -14.5095 -14.5022 -14.4039 -14.3883 -14.3643
   -14.2672 -14.2550  -1.4896   0.8380   4.6118   5.5626

          k = 0.4375-0.1875 0.5625 (  6221 PWs)   bands (ev):

   -14.6676 -14.6588 -14.5769 -14.5208 -14.5009 -14.4031 -14.3755 -14.3650
   -14.2670 -14.2596  -1.7581   1.2644   4.6155   5.7695

          k = 0.3125-0.0625 0.4375 (  6217 PWs)   bands (ev):

   -14.6554 -14.6530 -14.5965 -14.5368 -14.5129 -14.3956 -14.3612 -14.3390
   -14.2780 -14.2707  -2.3423   2.4079   4.9718   6.1572

          k = 0.1875 0.0625 0.3125 (  6214 PWs)   bands (ev):

   -14.6438 -14.6383 -14.6154 -14.5518 -14.5359 -14.3742 -14.3456 -14.3185
   -14.2968 -14.2829  -2.7797   3.5572   5.8263   6.4499

          k =-0.0625 0.5625 0.0625 (  6218 PWs)   bands (ev):

   -14.6525 -14.6499 -14.6154 -14.5256 -14.4828 -14.4398 -14.3643 -14.3097
   -14.2808 -14.2769  -2.2269   2.3020   5.2631   5.3515

          k =-0.1875 0.6875-0.0625 (  6221 PWs)   bands (ev):

   -14.6648 -14.6596 -14.5913 -14.5048 -14.4651 -14.4582 -14.3857 -14.3361
   -14.2673 -14.2616  -1.7131   1.3940   4.6988   5.0900

          k = 0.6875-0.1875 0.8125 (  6223 PWs)   bands (ev):

   -14.6789 -14.6643 -14.5611 -14.4849 -14.4680 -14.4524 -14.4088 -14.3677
   -14.2604 -14.2458  -1.1400   0.5944   4.1222   5.0591

          k = 0.5625-0.0625 0.6875 (  6227 PWs)   bands (ev):

   -14.6814 -14.6654 -14.5527 -14.4899 -14.4718 -14.4354 -14.4163 -14.3773
   -14.2587 -14.2437  -1.2041   0.6760   3.9093   5.3121

          k = 0.4375 0.0625 0.5625 (  6210 PWs)   bands (ev):

   -14.6705 -14.6615 -14.5701 -14.5201 -14.4911 -14.4140 -14.3767 -14.3709
   -14.2632 -14.2571  -1.7864   1.4320   4.2892   5.7459

          k = 0.3125 0.1875 0.4375 (  6220 PWs)   bands (ev):

   -14.6557 -14.6497 -14.5994 -14.5347 -14.5177 -14.3891 -14.3619 -14.3391
   -14.2801 -14.2711  -2.2708   2.1279   5.3379   6.0636

          k =-0.0625 0.8125 0.0625 (  6231 PWs)   bands (ev):

   -14.6646 -14.6622 -14.5848 -14.5047 -14.4815 -14.4224 -14.4075 -14.3418
   -14.2627 -14.2604  -1.2490   0.7396   4.7315   4.8570

          k = 0.8125-0.0625 0.9375 (  6224 PWs)   bands (ev):

   -14.6727 -14.6673 -14.5530 -14.5228 -14.4577 -14.4324 -14.4037 -14.3742
   -14.2564 -14.2511  -0.6298   0.0215   4.3893   4.7084

          k = 0.6875 0.0625 0.8125 (  6219 PWs)   bands (ev):

   -14.6821 -14.6669 -14.5486 -14.4822 -14.4633 -14.4407 -14.4300 -14.3787
   -14.2569 -14.2420  -0.7616   0.1860   3.9464   4.9468

          k = 0.5625 0.1875 0.6875 (  6224 PWs)   bands (ev):

   -14.6779 -14.6628 -14.5610 -14.4979 -14.4867 -14.4214 -14.4036 -14.3722
   -14.2620 -14.2477  -1.3059   0.7184   4.1694   5.3958

          k = 0.4375 0.3125 0.5625 (  6230 PWs)   bands (ev):

   -14.6625 -14.6551 -14.5867 -14.5214 -14.5131 -14.3884 -14.3751 -14.3565
   -14.2719 -14.2646  -1.7157   1.0560   5.1173   5.8100

          k =-0.0625-0.9375 0.0625 (  6232 PWs)   bands (ev):

   -14.6673 -14.6650 -14.5621 -14.5346 -14.4569 -14.4319 -14.3931 -14.3654
   -14.2586 -14.2564  -0.6483   0.0195   4.6229   4.7554

          k =-0.1875-0.8125-0.0625 (  6225 PWs)   bands (ev):

   -14.6700 -14.6646 -14.5739 -14.4951 -14.4820 -14.4304 -14.4082 -14.3532
   -14.2603 -14.2548  -1.2018   0.6908   4.4936   4.8365

          k =-0.3125-0.6875-0.1875 (  6217 PWs)   bands (ev):

   -14.6729 -14.6597 -14.5760 -14.5056 -14.4791 -14.4380 -14.3879 -14.3553
   -14.2666 -14.2528  -1.5614   1.0859   4.4478   5.2862

          k =-0.0625-0.6875 0.0625 (  6219 PWs)   bands (ev):

   -14.6594 -14.6569 -14.6028 -14.5048 -14.4726 -14.4527 -14.3846 -14.3227
   -14.2705 -14.2677  -1.7775   1.5044   4.9466   5.0576

          k =-0.1875-0.5625-0.0625 (  6224 PWs)   bands (ev):

   -14.6580 -14.6530 -14.6037 -14.5248 -14.4870 -14.4331 -14.3665 -14.3251
   -14.2766 -14.2696  -2.1508   2.1140   4.9981   5.4607

          k =-0.0625-0.4375 0.0625 (  6211 PWs)   bands (ev):

   -14.6449 -14.6419 -14.6224 -14.5432 -14.5113 -14.4076 -14.3476 -14.3051
   -14.2920 -14.2850  -2.5918   3.1207   5.6715   5.7282

          k =-0.1875 0.1875 0.1875 (  6201 PWs)   bands (ev):

   -14.6379 -14.6379 -14.6159 -14.5511 -14.5511 -14.3504 -14.3504 -14.3272
   -14.2911 -14.2911  -2.8723   3.7852   6.5705   6.5705

          k =-0.3125 0.3125 0.0625 (  6206 PWs)   bands (ev):

   -14.6493 -14.6454 -14.6058 -14.5450 -14.5288 -14.3753 -14.3588 -14.3282
   -14.2884 -14.2762  -2.6033   3.0052   5.3876   6.5390

          k =-0.4375 0.4375-0.0625 (  6219 PWs)   bands (ev):

   -14.6625 -14.6580 -14.5821 -14.5313 -14.5054 -14.3964 -14.3696 -14.3579
   -14.2673 -14.2668  -2.0994   1.9244   4.5898   6.1204

          k = 0.4375-0.4375 0.8125 (  6225 PWs)   bands (ev):

   -14.6731 -14.6605 -14.5681 -14.5118 -14.4968 -14.4010 -14.3941 -14.3707
   -14.2644 -14.2536  -1.5348   0.9612   4.3634   5.6990

          k = 0.3125-0.3125 0.6875 (  6230 PWs)   bands (ev):

   -14.6729 -14.6577 -14.5763 -14.5065 -14.4937 -14.4200 -14.3879 -14.3575
   -14.2687 -14.2530  -1.5204   0.9384   4.5423   5.4621

          k = 0.1875-0.1875 0.5625 (  6218 PWs)   bands (ev):

   -14.6623 -14.6511 -14.5993 -14.5239 -14.4927 -14.4252 -14.3681 -14.3313
   -14.2784 -14.2647  -2.0810   1.9116   5.0284   5.4713

          k =-0.1875 0.4375 0.1875 (  6221 PWs)   bands (ev):

   -14.6538 -14.6449 -14.6079 -14.5383 -14.5162 -14.3968 -14.3553 -14.3265
   -14.2864 -14.2735  -2.4279   2.5491   5.5852   5.8111

          k =-0.3125 0.5625 0.0625 (  6215 PWs)   bands (ev):

   -14.6635 -14.6586 -14.5865 -14.5235 -14.4914 -14.4227 -14.3701 -14.3476
   -14.2686 -14.2639  -2.0018   1.8013   4.6287   5.6322

          k = 0.5625-0.3125 0.9375 (  6215 PWs)   bands (ev):

   -14.6766 -14.6661 -14.5579 -14.5031 -14.4721 -14.4390 -14.3960 -14.3748
   -14.2585 -14.2492  -1.4142   0.9447   4.0962   5.2431

          k = 0.4375-0.1875 0.8125 (  6217 PWs)   bands (ev):

   -14.6801 -14.6671 -14.5514 -14.4893 -14.4683 -14.4457 -14.4100 -14.3781
   -14.2575 -14.2447  -1.1122   0.5513   4.0583   5.0288

          k = 0.3125-0.0625 0.6875 (  6209 PWs)   bands (ev):

   -14.6705 -14.6642 -14.5737 -14.5051 -14.4676 -14.4509 -14.3880 -14.3568
   -14.2615 -14.2556  -1.5888   1.1956   4.3797   5.1489

          k =-0.1875 0.6875 0.1875 (  6217 PWs)   bands (ev):

   -14.6698 -14.6574 -14.5864 -14.5049 -14.4690 -14.4525 -14.3864 -14.3422
   -14.2695 -14.2561  -1.6598   1.2766   4.5810   5.2014

          k = 0.6875-0.1875 1.0625 (  6212 PWs)   bands (ev):

   -14.6754 -14.6690 -14.5570 -14.4836 -14.4797 -14.4416 -14.4101 -14.3708
   -14.2555 -14.2492  -1.1142   0.5964   4.2330   4.7775

          k = 0.5625-0.0625 0.9375 (  6209 PWs)   bands (ev):

   -14.6807 -14.6753 -14.5246 -14.4902 -14.4627 -14.4380 -14.4285 -14.3994
   -14.2485 -14.2432  -0.5824   0.0241   4.0603   4.4574

          k = 0.4375 0.0625 0.8125 (  6212 PWs)   bands (ev):

   -14.6799 -14.6713 -14.5424 -14.4837 -14.4659 -14.4499 -14.4161 -14.3851
   -14.2530 -14.2446  -0.9992   0.4670   4.0243   4.7797

          k =-0.1875-1.0625 0.1875 (  6219 PWs)   bands (ev):

   -14.6784 -14.6651 -14.5542 -14.5048 -14.4594 -14.4314 -14.4204 -14.3734
   -14.2585 -14.2455  -0.6759   0.0799   4.1132   4.9207

          k =-0.3125-0.9375 0.0625 (  6208 PWs)   bands (ev):

   -14.6778 -14.6719 -14.5379 -14.5050 -14.4597 -14.4339 -14.4187 -14.3881
   -14.2519 -14.2460  -0.6026   0.0235   4.1781   4.5654

          k =-0.1875-0.8125 0.1875 (  6221 PWs)   bands (ev):

   -14.6754 -14.6624 -14.5701 -14.4833 -14.4827 -14.4406 -14.4083 -14.3577
   -14.2624 -14.2493  -1.1770   0.6522   4.2711   5.0154

          k =-0.3125 0.3125 0.3125 (  6189 PWs)   bands (ev):

   -14.6477 -14.6477 -14.6070 -14.5336 -14.5336 -14.3656 -14.3656 -14.3378
   -14.2802 -14.2802  -2.3632   2.2058   6.1851   6.1851

          k =-0.4375 0.4375 0.1875 (  6221 PWs)   bands (ev):

   -14.6591 -14.6561 -14.5882 -14.5302 -14.5124 -14.3885 -14.3681 -14.3547
   -14.2704 -14.2693  -2.0436   1.6848   4.9713   6.0979

          k = 0.4375-0.4375 1.0625 (  6221 PWs)   bands (ev):

   -14.6772 -14.6629 -14.5601 -14.5081 -14.4846 -14.4137 -14.4023 -14.3745
   -14.2614 -14.2492  -1.5154   1.0497   4.0388   5.6555

          k = 0.3125-0.3125 0.9375 (  6237 PWs)   bands (ev):

   -14.6834 -14.6648 -14.5530 -14.4685 -14.4673 -14.4534 -14.4259 -14.3756
   -14.2590 -14.2411  -0.9780   0.4161   3.8537   5.2337

          k =-0.3125 0.5625 0.3125 (  6231 PWs)   bands (ev):

   -14.6638 -14.6527 -14.5901 -14.5220 -14.5089 -14.3995 -14.3728 -14.3479
   -14.2754 -14.2628  -1.8448   1.3144   5.1299   5.6733

          k = 0.5625-0.3125 1.1875 (  6223 PWs)   bands (ev):

   -14.6751 -14.6627 -14.5648 -14.5058 -14.4856 -14.4242 -14.3922 -14.3698
   -14.2626 -14.2508  -1.4349   0.8824   4.3028   5.3548

          k = 0.4375-0.1875 1.0625 (  6209 PWs)   bands (ev):

   -14.6825 -14.6700 -14.5407 -14.4756 -14.4631 -14.4519 -14.4261 -14.3858
   -14.2540 -14.2418  -0.8750   0.3223   3.9186   4.8580

          k =-0.3125-1.1875 0.3125 (  6236 PWs)   bands (ev):

   -14.6797 -14.6622 -14.5625 -14.4871 -14.4789 -14.4391 -14.4073 -14.3681
   -14.2625 -14.2453  -1.2024   0.6237   4.0964   5.3116

          k =-0.4375 0.4375 0.4375 (  6222 PWs)   bands (ev):

   -14.6521 -14.6521 -14.6004 -14.5250 -14.5250 -14.3724 -14.3724 -14.3456
   -14.2754 -14.2754  -1.8115   1.0897   5.9718   5.9718

          k = 0.4375-0.4375 1.3125 (  6220 PWs)   bands (ev):

   -14.6657 -14.6567 -14.5811 -14.5166 -14.5114 -14.3859 -14.3843 -14.3622
   -14.2694 -14.2614  -1.5875   0.8882   4.9084   5.7777

     highest occupied level (ev):     6.9676

!    total energy              =    -318.50182607 Ry
     Harris-Foulkes estimate   =    -318.50182606 Ry
     estimated scf accuracy    <          2.2E-09 Ry

     The total energy is the sum of the following terms:

     one-electron contribution =    -162.00693339 Ry
     hartree contribution      =      97.52391532 Ry
     xc contribution           =     -85.96271303 Ry
     ewald contribution        =    -168.05609497 Ry

     convergence has been achieved in   7 iterations


     Computing stress (Cartesian axis) and pressure

          total   stress  (Ry/bohr**3)                   (kbar)     P=   -2.97
  -0.00002018   0.00000000   0.00000000         -2.97      0.00      0.00
   0.00000000  -0.00002018  -0.00000000          0.00     -2.97     -0.00
   0.00000000  -0.00000000  -0.00002018          0.00     -0.00     -2.97


     Writing output data file sn.alpha.82.save

     init_run     :      2.85s CPU      2.94s WALL (       1 calls)
     electrons    :     49.37s CPU     50.79s WALL (       1 calls)
     stress       :      2.29s CPU      2.35s WALL (       1 calls)

     Called by init_run:
     wfcinit      :      2.17s CPU      2.22s WALL (       1 calls)
     potinit      :      0.14s CPU      0.14s WALL (       1 calls)

     Called by electrons:
     c_bands      :     38.94s CPU     39.75s WALL (       7 calls)
     sum_band     :      8.40s CPU      8.77s WALL (       7 calls)
     v_of_rho     :      0.84s CPU      0.87s WALL (       8 calls)
     newd         :      1.28s CPU      1.45s WALL (       8 calls)
     mix_rho      :      0.09s CPU      0.10s WALL (       7 calls)

     Called by c_bands:
     init_us_2    :      1.02s CPU      1.03s WALL (     960 calls)
     cegterg      :     37.33s CPU     38.12s WALL (     420 calls)

     Called by sum_band:
     sum_band:bec :      0.00s CPU      0.01s WALL (     420 calls)
     addusdens    :      1.35s CPU      1.58s WALL (       7 calls)

     Called by *egterg:
     h_psi        :     34.51s CPU     35.30s WALL (    1709 calls)
     s_psi        :      0.57s CPU      0.58s WALL (    1709 calls)
     g_psi        :      0.16s CPU      0.16s WALL (    1229 calls)
     cdiaghg      :      0.74s CPU      0.74s WALL (    1649 calls)

     Called by h_psi:
     h_psi:pot    :     34.12s CPU     34.90s WALL (    1709 calls)
     h_psi:calbec :      0.96s CPU      0.98s WALL (    1709 calls)
     vloc_psi     :     32.44s CPU     33.20s WALL (    1709 calls)
     add_vuspsi   :      0.72s CPU      0.72s WALL (    1709 calls)

     General routines
     calbec       :      1.26s CPU      1.28s WALL (    2189 calls)
     fft          :      0.55s CPU      0.59s WALL (     138 calls)
     ffts         :      0.02s CPU      0.02s WALL (      15 calls)
     fftw         :     26.65s CPU     27.28s WALL (   45496 calls)
     interpolate  :      0.10s CPU      0.11s WALL (      15 calls)
     davcio       :      0.00s CPU      0.01s WALL (      60 calls)

     Parallel routines
     fft_scatter  :      3.97s CPU      4.11s WALL (   45649 calls)

     PWSCF        :    54.69s CPU        57.77s WALL


   This run was terminated on:  13: 3:59  12Nov2017            

=------------------------------------------------------------------------------=
   JOB DONE.
=------------------------------------------------------------------------------=
