
     Program PWSCF v.6.1 (svn rev. 13369) starts on 23Nov2017 at  1:39: 5 

     This program is part of the open-source Quantum ESPRESSO suite
     for quantum simulation of materials; please cite
         "P. Giannozzi et al., J. Phys.:Condens. Matter 21 395502 (2009);
          URL http://www.quantum-espresso.org", 
     in publications or presentations arising from this work. More details at
     http://www.quantum-espresso.org/quote

     Parallel version (MPI), running on     4 processors
     R & G space division:  proc/nbgrp/npool/nimage =       4
     Waiting for input...
     Reading input from standard input
     Message from routine read_cards :
     DEPRECATED: no units specified in ATOMIC_POSITIONS card
     Message from routine read_cards :
     ATOMIC_POSITIONS: units set to alat

     Current dimensions of program PWSCF are:
     Max number of different atomic species (ntypx) = 10
     Max number of k-points (npk) =  40000
     Max angular momentum in pseudopotentials (lmaxx) =  3

     Subspace diagonalization in iterative solution of the eigenvalue problem:
     a serial algorithm will be used


     Parallelization info
     --------------------
     sticks:   dense  smooth     PW     G-vecs:    dense   smooth      PW
     Min         555     277     87                17259     6076    1027
     Max         556     278     88                17263     6078    1028
     Sum        2221    1111    349                69041    24309    4111



     bravais-lattice index     =            2
     lattice parameter (alat)  =      12.6800  a.u.
     unit-cell volume          =     509.6802 (a.u.)^3
     number of atoms/cell      =            2
     number of atomic types    =            1
     number of electrons       =        28.00
     number of Kohn-Sham states=           14
     kinetic-energy cutoff     =      50.0000  Ry
     charge density cutoff     =     400.0000  Ry
     convergence threshold     =      1.0E-08
     mixing beta               =       0.7000
     number of iterations used =            8  plain     mixing
     Exchange-correlation      =  SLA  PW   PBX  PBC ( 1  4  3  4 0 0)

     celldm(1)=  12.680000  celldm(2)=   0.000000  celldm(3)=   0.000000
     celldm(4)=   0.000000  celldm(5)=   0.000000  celldm(6)=   0.000000

     crystal axes: (cart. coord. in units of alat)
               a(1) = (  -0.500000   0.000000   0.500000 )  
               a(2) = (   0.000000   0.500000   0.500000 )  
               a(3) = (  -0.500000   0.500000   0.000000 )  

     reciprocal axes: (cart. coord. in units 2 pi/alat)
               b(1) = ( -1.000000 -1.000000  1.000000 )  
               b(2) = (  1.000000  1.000000  1.000000 )  
               b(3) = ( -1.000000  1.000000 -1.000000 )  


     PseudoPot. # 1 for Sn read from file:
     /home/s1333534/quantum_espresso/qe-6.1/pseudo/sn_pbe_v1.4.uspp.F.UPF
     MD5 check sum: 469debedee59599fedebd795477fea03
     Pseudo is Ultrasoft + core correction, Zval = 14.0
     Generated by new atomic code, or converted to UPF format
     Using radial grid of  891 points,  6 beta functions with: 
                l(1) =   0
                l(2) =   0
                l(3) =   1
                l(4) =   1
                l(5) =   2
                l(6) =   2
     Q(r) pseudized with  8 coefficients,  rinner =    1.350   1.350   1.350
                                                       1.350   1.350

     atomic species   valence    mass     pseudopotential
        Sn            14.00   118.71000     Sn( 1.00)

     48 Sym. Ops., with inversion, found (24 have fractional translation)



   Cartesian axes

     site n.     atom                  positions (alat units)
         1           Sn  tau(   1) = (   0.0000000   0.0000000   0.0000000  )
         2           Sn  tau(   2) = (   0.2500000   0.2500000   0.2500000  )

     number of k points=   280

     Number of k-points >= 100: set verbosity='high' to print them.

     Dense  grid:    69041 G-vectors     FFT dimensions: (  60,  60,  60)

     Smooth grid:    24309 G-vectors     FFT dimensions: (  45,  45,  45)

     Estimated max dynamical RAM per process >      57.98MB

     Estimated total allocated dynamical RAM >     231.91MB

     Initial potential from superposition of free atoms

     starting charge   25.99991, renormalised to   28.00000
     Starting wfc are   18 randomized atomic wfcs

     total cpu time spent up to now is        5.6 secs

     per-process dynamical memory:    64.0 Mb

     Self-consistent Calculation

     iteration #  1     ecut=    50.00 Ry     beta=0.70
     Davidson diagonalization with overlap
     ethr =  1.00E-02,  avg # of iterations =  2.5

     total cpu time spent up to now is       20.2 secs

     total energy              =    -317.48132385 Ry
     Harris-Foulkes estimate   =    -319.55324892 Ry
     estimated scf accuracy    <       2.52411129 Ry

     iteration #  2     ecut=    50.00 Ry     beta=0.70
     Davidson diagonalization with overlap
     ethr =  9.01E-03,  avg # of iterations =  3.0

     total cpu time spent up to now is       36.2 secs

     total energy              =    -318.39304132 Ry
     Harris-Foulkes estimate   =    -318.71206402 Ry
     estimated scf accuracy    <       0.47450382 Ry

     iteration #  3     ecut=    50.00 Ry     beta=0.70
     Davidson diagonalization with overlap
     ethr =  1.69E-03,  avg # of iterations =  2.0

     total cpu time spent up to now is       50.4 secs

     total energy              =    -318.48843279 Ry
     Harris-Foulkes estimate   =    -318.48999837 Ry
     estimated scf accuracy    <       0.00287239 Ry

     iteration #  4     ecut=    50.00 Ry     beta=0.70
     Davidson diagonalization with overlap
     ethr =  1.03E-05,  avg # of iterations =  2.9

     total cpu time spent up to now is       65.4 secs

     total energy              =    -318.48931218 Ry
     Harris-Foulkes estimate   =    -318.48942847 Ry
     estimated scf accuracy    <       0.00017208 Ry

     iteration #  5     ecut=    50.00 Ry     beta=0.70
     Davidson diagonalization with overlap
     ethr =  6.15E-07,  avg # of iterations =  3.0

     total cpu time spent up to now is       80.6 secs

     total energy              =    -318.48936556 Ry
     Harris-Foulkes estimate   =    -318.48936634 Ry
     estimated scf accuracy    <       0.00000156 Ry

     iteration #  6     ecut=    50.00 Ry     beta=0.70
     Davidson diagonalization with overlap
     ethr =  5.59E-09,  avg # of iterations =  4.0

     total cpu time spent up to now is       96.7 secs

     total energy              =    -318.48936635 Ry
     Harris-Foulkes estimate   =    -318.48936639 Ry
     estimated scf accuracy    <       0.00000007 Ry

     iteration #  7     ecut=    50.00 Ry     beta=0.70
     Davidson diagonalization with overlap
     ethr =  2.35E-10,  avg # of iterations =  3.1

     total cpu time spent up to now is      112.6 secs

     End of self-consistent calculation

     Number of k-points >= 100: set verbosity='high' to print the bands.

     highest occupied level (ev):     6.7007

!    total energy              =    -318.48936638 Ry
     Harris-Foulkes estimate   =    -318.48936638 Ry
     estimated scf accuracy    <          2.8E-09 Ry

     The total energy is the sum of the following terms:

     one-electron contribution =    -164.48998766 Ry
     hartree contribution      =      98.47173192 Ry
     xc contribution           =     -85.93918372 Ry
     ewald contribution        =    -166.53192692 Ry

     convergence has been achieved in   7 iterations


     Computing stress (Cartesian axis) and pressure

          total   stress  (Ry/bohr**3)                   (kbar)     P=  -26.26
  -0.00017854  -0.00000000  -0.00000000        -26.26     -0.00     -0.00
  -0.00000000  -0.00017854   0.00000000         -0.00    -26.26      0.00
  -0.00000000   0.00000000  -0.00017854         -0.00      0.00    -26.26


     Writing output data file sn.a.12.68.14.save

     init_run     :      5.43s CPU      5.57s WALL (       1 calls)
     electrons    :    104.68s CPU    106.96s WALL (       1 calls)
     stress       :      2.54s CPU      2.56s WALL (       1 calls)

     Called by init_run:
     wfcinit      :      4.93s CPU      5.04s WALL (       1 calls)
     potinit      :      0.06s CPU      0.06s WALL (       1 calls)

     Called by electrons:
     c_bands      :     89.41s CPU     91.27s WALL (       7 calls)
     sum_band     :     14.40s CPU     14.76s WALL (       7 calls)
     v_of_rho     :      0.36s CPU      0.37s WALL (       8 calls)
     newd         :      0.55s CPU      0.61s WALL (       8 calls)
     mix_rho      :      0.03s CPU      0.03s WALL (       7 calls)

     Called by c_bands:
     init_us_2    :      1.90s CPU      1.93s WALL (    4480 calls)
     cegterg      :     86.02s CPU     87.85s WALL (    1960 calls)

     Called by sum_band:
     sum_band:bec :      0.02s CPU      0.02s WALL (    1960 calls)
     addusdens    :      0.57s CPU      0.66s WALL (       7 calls)

     Called by *egterg:
     h_psi        :     78.86s CPU     80.67s WALL (    8016 calls)
     s_psi        :      0.98s CPU      1.00s WALL (    8016 calls)
     g_psi        :      0.37s CPU      0.37s WALL (    5776 calls)
     cdiaghg      :      3.38s CPU      3.40s WALL (    7736 calls)

     Called by h_psi:
     h_psi:pot    :     78.42s CPU     80.22s WALL (    8016 calls)
     h_psi:calbec :      2.36s CPU      2.41s WALL (    8016 calls)
     vloc_psi     :     74.82s CPU     76.54s WALL (    8016 calls)
     add_vuspsi   :      1.23s CPU      1.24s WALL (    8016 calls)

     General routines
     calbec       :      3.03s CPU      3.08s WALL (   10256 calls)
     fft          :      0.19s CPU      0.19s WALL (     138 calls)
     ffts         :      0.01s CPU      0.01s WALL (      15 calls)
     fftw         :     74.20s CPU     75.92s WALL (  212522 calls)
     interpolate  :      0.03s CPU      0.04s WALL (      15 calls)
     davcio       :      0.00s CPU      0.03s WALL (     280 calls)

     Parallel routines
     fft_scatter  :      9.42s CPU      9.50s WALL (  212675 calls)

     PWSCF        :  1m52.98s CPU     1m55.51s WALL


   This run was terminated on:   1:41: 1  23Nov2017            

=------------------------------------------------------------------------------=
   JOB DONE.
=------------------------------------------------------------------------------=
