
     Program PWSCF v.6.1 (svn rev. 13369) starts on 23Nov2017 at  1:36:58 

     This program is part of the open-source Quantum ESPRESSO suite
     for quantum simulation of materials; please cite
         "P. Giannozzi et al., J. Phys.:Condens. Matter 21 395502 (2009);
          URL http://www.quantum-espresso.org", 
     in publications or presentations arising from this work. More details at
     http://www.quantum-espresso.org/quote

     Parallel version (MPI), running on     4 processors
     R & G space division:  proc/nbgrp/npool/nimage =       4
     Waiting for input...
     Reading input from standard input
     Message from routine read_cards :
     DEPRECATED: no units specified in ATOMIC_POSITIONS card
     Message from routine read_cards :
     ATOMIC_POSITIONS: units set to alat

     Current dimensions of program PWSCF are:
     Max number of different atomic species (ntypx) = 10
     Max number of k-points (npk) =  40000
     Max angular momentum in pseudopotentials (lmaxx) =  3

     Subspace diagonalization in iterative solution of the eigenvalue problem:
     a serial algorithm will be used


     Parallelization info
     --------------------
     sticks:   dense  smooth     PW     G-vecs:    dense   smooth      PW
     Min         555     277     87                17259     6076    1027
     Max         556     278     88                17263     6078    1028
     Sum        2221    1111    349                69041    24309    4111



     bravais-lattice index     =            2
     lattice parameter (alat)  =      12.6800  a.u.
     unit-cell volume          =     509.6802 (a.u.)^3
     number of atoms/cell      =            2
     number of atomic types    =            1
     number of electrons       =        28.00
     number of Kohn-Sham states=           14
     kinetic-energy cutoff     =      50.0000  Ry
     charge density cutoff     =     400.0000  Ry
     convergence threshold     =      1.0E-08
     mixing beta               =       0.7000
     number of iterations used =            8  plain     mixing
     Exchange-correlation      =  SLA  PW   PBX  PBC ( 1  4  3  4 0 0)

     celldm(1)=  12.680000  celldm(2)=   0.000000  celldm(3)=   0.000000
     celldm(4)=   0.000000  celldm(5)=   0.000000  celldm(6)=   0.000000

     crystal axes: (cart. coord. in units of alat)
               a(1) = (  -0.500000   0.000000   0.500000 )  
               a(2) = (   0.000000   0.500000   0.500000 )  
               a(3) = (  -0.500000   0.500000   0.000000 )  

     reciprocal axes: (cart. coord. in units 2 pi/alat)
               b(1) = ( -1.000000 -1.000000  1.000000 )  
               b(2) = (  1.000000  1.000000  1.000000 )  
               b(3) = ( -1.000000  1.000000 -1.000000 )  


     PseudoPot. # 1 for Sn read from file:
     /home/s1333534/quantum_espresso/qe-6.1/pseudo/sn_pbe_v1.4.uspp.F.UPF
     MD5 check sum: 469debedee59599fedebd795477fea03
     Pseudo is Ultrasoft + core correction, Zval = 14.0
     Generated by new atomic code, or converted to UPF format
     Using radial grid of  891 points,  6 beta functions with: 
                l(1) =   0
                l(2) =   0
                l(3) =   1
                l(4) =   1
                l(5) =   2
                l(6) =   2
     Q(r) pseudized with  8 coefficients,  rinner =    1.350   1.350   1.350
                                                       1.350   1.350

     atomic species   valence    mass     pseudopotential
        Sn            14.00   118.71000     Sn( 1.00)

     48 Sym. Ops., with inversion, found (24 have fractional translation)



   Cartesian axes

     site n.     atom                  positions (alat units)
         1           Sn  tau(   1) = (   0.0000000   0.0000000   0.0000000  )
         2           Sn  tau(   2) = (   0.2500000   0.2500000   0.2500000  )

     number of k points=   110

     Number of k-points >= 100: set verbosity='high' to print them.

     Dense  grid:    69041 G-vectors     FFT dimensions: (  60,  60,  60)

     Smooth grid:    24309 G-vectors     FFT dimensions: (  45,  45,  45)

     Estimated max dynamical RAM per process >      30.38MB

     Estimated total allocated dynamical RAM >     121.51MB

     Initial potential from superposition of free atoms

     starting charge   25.99991, renormalised to   28.00000
     Starting wfc are   18 randomized atomic wfcs

     total cpu time spent up to now is        2.6 secs

     per-process dynamical memory:    34.9 Mb

     Self-consistent Calculation

     iteration #  1     ecut=    50.00 Ry     beta=0.70
     Davidson diagonalization with overlap
     ethr =  1.00E-02,  avg # of iterations =  2.5

     total cpu time spent up to now is        8.5 secs

     total energy              =    -317.48144394 Ry
     Harris-Foulkes estimate   =    -319.55322920 Ry
     estimated scf accuracy    <       2.52395470 Ry

     iteration #  2     ecut=    50.00 Ry     beta=0.70
     Davidson diagonalization with overlap
     ethr =  9.01E-03,  avg # of iterations =  3.0

     total cpu time spent up to now is       15.0 secs

     total energy              =    -318.39306013 Ry
     Harris-Foulkes estimate   =    -318.71195649 Ry
     estimated scf accuracy    <       0.47432560 Ry

     iteration #  3     ecut=    50.00 Ry     beta=0.70
     Davidson diagonalization with overlap
     ethr =  1.69E-03,  avg # of iterations =  2.0

     total cpu time spent up to now is       20.8 secs

     total energy              =    -318.48843160 Ry
     Harris-Foulkes estimate   =    -318.48999765 Ry
     estimated scf accuracy    <       0.00287337 Ry

     iteration #  4     ecut=    50.00 Ry     beta=0.70
     Davidson diagonalization with overlap
     ethr =  1.03E-05,  avg # of iterations =  3.0

     total cpu time spent up to now is       26.9 secs

     total energy              =    -318.48931046 Ry
     Harris-Foulkes estimate   =    -318.48942619 Ry
     estimated scf accuracy    <       0.00017123 Ry

     iteration #  5     ecut=    50.00 Ry     beta=0.70
     Davidson diagonalization with overlap
     ethr =  6.12E-07,  avg # of iterations =  3.0

     total cpu time spent up to now is       33.1 secs

     total energy              =    -318.48936352 Ry
     Harris-Foulkes estimate   =    -318.48936427 Ry
     estimated scf accuracy    <       0.00000153 Ry

     iteration #  6     ecut=    50.00 Ry     beta=0.70
     Davidson diagonalization with overlap
     ethr =  5.46E-09,  avg # of iterations =  4.0

     total cpu time spent up to now is       39.7 secs

     total energy              =    -318.48936428 Ry
     Harris-Foulkes estimate   =    -318.48936432 Ry
     estimated scf accuracy    <       0.00000007 Ry

     iteration #  7     ecut=    50.00 Ry     beta=0.70
     Davidson diagonalization with overlap
     ethr =  2.35E-10,  avg # of iterations =  3.2

     total cpu time spent up to now is       46.1 secs

     End of self-consistent calculation

     Number of k-points >= 100: set verbosity='high' to print the bands.

     highest occupied level (ev):     6.6787

!    total energy              =    -318.48936431 Ry
     Harris-Foulkes estimate   =    -318.48936431 Ry
     estimated scf accuracy    <          2.5E-09 Ry

     The total energy is the sum of the following terms:

     one-electron contribution =    -164.49012813 Ry
     hartree contribution      =      98.47189147 Ry
     xc contribution           =     -85.93920074 Ry
     ewald contribution        =    -166.53192692 Ry

     convergence has been achieved in   7 iterations


     Computing stress (Cartesian axis) and pressure

          total   stress  (Ry/bohr**3)                   (kbar)     P=  -26.23
  -0.00017833  -0.00000000   0.00000000        -26.23     -0.00      0.00
   0.00000000  -0.00017833   0.00000000          0.00    -26.23      0.00
   0.00000000   0.00000000  -0.00017833          0.00      0.00    -26.23


     Writing output data file sn.a.12.68.10.save

     init_run     :      2.45s CPU      2.50s WALL (       1 calls)
     electrons    :     42.56s CPU     43.58s WALL (       1 calls)
     stress       :      1.35s CPU      1.39s WALL (       1 calls)

     Called by init_run:
     wfcinit      :      1.95s CPU      1.99s WALL (       1 calls)
     potinit      :      0.06s CPU      0.06s WALL (       1 calls)

     Called by electrons:
     c_bands      :     35.59s CPU     36.33s WALL (       7 calls)
     sum_band     :      6.12s CPU      6.31s WALL (       7 calls)
     v_of_rho     :      0.37s CPU      0.38s WALL (       8 calls)
     newd         :      0.52s CPU      0.62s WALL (       8 calls)
     mix_rho      :      0.03s CPU      0.03s WALL (       7 calls)

     Called by c_bands:
     init_us_2    :      0.75s CPU      0.76s WALL (    1760 calls)
     cegterg      :     34.25s CPU     34.98s WALL (     770 calls)

     Called by sum_band:
     sum_band:bec :      0.01s CPU      0.01s WALL (     770 calls)
     addusdens    :      0.57s CPU      0.66s WALL (       7 calls)

     Called by *egterg:
     h_psi        :     31.45s CPU     32.16s WALL (    3159 calls)
     s_psi        :      0.39s CPU      0.40s WALL (    3159 calls)
     g_psi        :      0.14s CPU      0.14s WALL (    2279 calls)
     cdiaghg      :      1.33s CPU      1.34s WALL (    3049 calls)

     Called by h_psi:
     h_psi:pot    :     31.27s CPU     31.98s WALL (    3159 calls)
     h_psi:calbec :      0.89s CPU      0.91s WALL (    3159 calls)
     vloc_psi     :     29.89s CPU     30.56s WALL (    3159 calls)
     add_vuspsi   :      0.48s CPU      0.49s WALL (    3159 calls)

     General routines
     calbec       :      1.16s CPU      1.18s WALL (    4039 calls)
     fft          :      0.19s CPU      0.19s WALL (     138 calls)
     ffts         :      0.01s CPU      0.01s WALL (      15 calls)
     fftw         :     29.41s CPU     30.05s WALL (   83518 calls)
     interpolate  :      0.04s CPU      0.04s WALL (      15 calls)
     davcio       :      0.00s CPU      0.01s WALL (     110 calls)

     Parallel routines
     fft_scatter  :      3.86s CPU      3.87s WALL (   83671 calls)

     PWSCF        :    46.54s CPU        47.68s WALL


   This run was terminated on:   1:37:46  23Nov2017            

=------------------------------------------------------------------------------=
   JOB DONE.
=------------------------------------------------------------------------------=
