
     Program PWSCF v.6.1 (svn rev. 13369) starts on 23Nov2017 at  1:36:15 

     This program is part of the open-source Quantum ESPRESSO suite
     for quantum simulation of materials; please cite
         "P. Giannozzi et al., J. Phys.:Condens. Matter 21 395502 (2009);
          URL http://www.quantum-espresso.org", 
     in publications or presentations arising from this work. More details at
     http://www.quantum-espresso.org/quote

     Parallel version (MPI), running on     4 processors
     R & G space division:  proc/nbgrp/npool/nimage =       4
     Waiting for input...
     Reading input from standard input
     Message from routine read_cards :
     DEPRECATED: no units specified in ATOMIC_POSITIONS card
     Message from routine read_cards :
     ATOMIC_POSITIONS: units set to alat

     Current dimensions of program PWSCF are:
     Max number of different atomic species (ntypx) = 10
     Max number of k-points (npk) =  40000
     Max angular momentum in pseudopotentials (lmaxx) =  3

     Subspace diagonalization in iterative solution of the eigenvalue problem:
     a serial algorithm will be used


     Parallelization info
     --------------------
     sticks:   dense  smooth     PW     G-vecs:    dense   smooth      PW
     Min         555     277     84                17259     6076    1003
     Max         556     278     85                17263     6078    1005
     Sum        2221    1111    337                69041    24309    4015



     bravais-lattice index     =            2
     lattice parameter (alat)  =      12.6800  a.u.
     unit-cell volume          =     509.6802 (a.u.)^3
     number of atoms/cell      =            2
     number of atomic types    =            1
     number of electrons       =        28.00
     number of Kohn-Sham states=           14
     kinetic-energy cutoff     =      50.0000  Ry
     charge density cutoff     =     400.0000  Ry
     convergence threshold     =      1.0E-08
     mixing beta               =       0.7000
     number of iterations used =            8  plain     mixing
     Exchange-correlation      =  SLA  PW   PBX  PBC ( 1  4  3  4 0 0)

     celldm(1)=  12.680000  celldm(2)=   0.000000  celldm(3)=   0.000000
     celldm(4)=   0.000000  celldm(5)=   0.000000  celldm(6)=   0.000000

     crystal axes: (cart. coord. in units of alat)
               a(1) = (  -0.500000   0.000000   0.500000 )  
               a(2) = (   0.000000   0.500000   0.500000 )  
               a(3) = (  -0.500000   0.500000   0.000000 )  

     reciprocal axes: (cart. coord. in units 2 pi/alat)
               b(1) = ( -1.000000 -1.000000  1.000000 )  
               b(2) = (  1.000000  1.000000  1.000000 )  
               b(3) = ( -1.000000  1.000000 -1.000000 )  


     PseudoPot. # 1 for Sn read from file:
     /home/s1333534/quantum_espresso/qe-6.1/pseudo/sn_pbe_v1.4.uspp.F.UPF
     MD5 check sum: 469debedee59599fedebd795477fea03
     Pseudo is Ultrasoft + core correction, Zval = 14.0
     Generated by new atomic code, or converted to UPF format
     Using radial grid of  891 points,  6 beta functions with: 
                l(1) =   0
                l(2) =   0
                l(3) =   1
                l(4) =   1
                l(5) =   2
                l(6) =   2
     Q(r) pseudized with  8 coefficients,  rinner =    1.350   1.350   1.350
                                                       1.350   1.350

     atomic species   valence    mass     pseudopotential
        Sn            14.00   118.71000     Sn( 1.00)

     48 Sym. Ops., with inversion, found (24 have fractional translation)



   Cartesian axes

     site n.     atom                  positions (alat units)
         1           Sn  tau(   1) = (   0.0000000   0.0000000   0.0000000  )
         2           Sn  tau(   2) = (   0.2500000   0.2500000   0.2500000  )

     number of k points=    28
                       cart. coord. in units 2pi/alat
        k(    1) = (  -0.0833333   0.0833333   0.0833333), wk =   0.0185185
        k(    2) = (  -0.2500000   0.2500000  -0.0833333), wk =   0.0555556
        k(    3) = (  -0.4166667   0.4166667  -0.2500000), wk =   0.0555556
        k(    4) = (   0.4166667  -0.4166667   0.5833333), wk =   0.0555556
        k(    5) = (   0.2500000  -0.2500000   0.4166667), wk =   0.0555556
        k(    6) = (   0.0833333  -0.0833333   0.2500000), wk =   0.0555556
        k(    7) = (  -0.0833333   0.4166667   0.0833333), wk =   0.0555556
        k(    8) = (  -0.2500000   0.5833333  -0.0833333), wk =   0.1111111
        k(    9) = (   0.5833333  -0.2500000   0.7500000), wk =   0.1111111
        k(   10) = (   0.4166667  -0.0833333   0.5833333), wk =   0.1111111
        k(   11) = (   0.2500000   0.0833333   0.4166667), wk =   0.1111111
        k(   12) = (  -0.0833333   0.7500000   0.0833333), wk =   0.0555556
        k(   13) = (   0.7500000  -0.0833333   0.9166667), wk =   0.1111111
        k(   14) = (   0.5833333   0.0833333   0.7500000), wk =   0.1111111
        k(   15) = (   0.4166667   0.2500000   0.5833333), wk =   0.1111111
        k(   16) = (  -0.0833333  -0.9166667   0.0833333), wk =   0.0555556
        k(   17) = (  -0.2500000  -0.7500000  -0.0833333), wk =   0.1111111
        k(   18) = (  -0.0833333  -0.5833333   0.0833333), wk =   0.0555556
        k(   19) = (  -0.2500000   0.2500000   0.2500000), wk =   0.0185185
        k(   20) = (  -0.4166667   0.4166667   0.0833333), wk =   0.0555556
        k(   21) = (   0.4166667  -0.4166667   0.9166667), wk =   0.0555556
        k(   22) = (   0.2500000  -0.2500000   0.7500000), wk =   0.0555556
        k(   23) = (  -0.2500000   0.5833333   0.2500000), wk =   0.0555556
        k(   24) = (   0.5833333  -0.2500000   1.0833333), wk =   0.1111111
        k(   25) = (   0.4166667  -0.0833333   0.9166667), wk =   0.1111111
        k(   26) = (  -0.2500000  -1.0833333   0.2500000), wk =   0.0555556
        k(   27) = (  -0.4166667   0.4166667   0.4166667), wk =   0.0185185
        k(   28) = (   0.4166667  -0.4166667   1.2500000), wk =   0.0555556

     Dense  grid:    69041 G-vectors     FFT dimensions: (  60,  60,  60)

     Smooth grid:    24309 G-vectors     FFT dimensions: (  45,  45,  45)

     Estimated max dynamical RAM per process >      17.06MB

     Estimated total allocated dynamical RAM >      68.26MB

     Initial potential from superposition of free atoms

     starting charge   25.99991, renormalised to   28.00000
     Starting wfc are   18 randomized atomic wfcs

     total cpu time spent up to now is        1.1 secs

     per-process dynamical memory:    20.8 Mb

     Self-consistent Calculation

     iteration #  1     ecut=    50.00 Ry     beta=0.70
     Davidson diagonalization with overlap
     ethr =  1.00E-02,  avg # of iterations =  2.4

     total cpu time spent up to now is        2.8 secs

     total energy              =    -317.48129284 Ry
     Harris-Foulkes estimate   =    -319.55313545 Ry
     estimated scf accuracy    <       2.52403306 Ry

     iteration #  2     ecut=    50.00 Ry     beta=0.70
     Davidson diagonalization with overlap
     ethr =  9.01E-03,  avg # of iterations =  3.0

     total cpu time spent up to now is        4.8 secs

     total energy              =    -318.39289764 Ry
     Harris-Foulkes estimate   =    -318.71180170 Ry
     estimated scf accuracy    <       0.47439117 Ry

     iteration #  3     ecut=    50.00 Ry     beta=0.70
     Davidson diagonalization with overlap
     ethr =  1.69E-03,  avg # of iterations =  2.0

     total cpu time spent up to now is        6.5 secs

     total energy              =    -318.48829500 Ry
     Harris-Foulkes estimate   =    -318.48986336 Ry
     estimated scf accuracy    <       0.00288203 Ry

     iteration #  4     ecut=    50.00 Ry     beta=0.70
     Davidson diagonalization with overlap
     ethr =  1.03E-05,  avg # of iterations =  3.0

     total cpu time spent up to now is        8.4 secs

     total energy              =    -318.48918360 Ry
     Harris-Foulkes estimate   =    -318.48929938 Ry
     estimated scf accuracy    <       0.00017151 Ry

     iteration #  5     ecut=    50.00 Ry     beta=0.70
     Davidson diagonalization with overlap
     ethr =  6.13E-07,  avg # of iterations =  3.0

     total cpu time spent up to now is       10.2 secs

     total energy              =    -318.48923620 Ry
     Harris-Foulkes estimate   =    -318.48923683 Ry
     estimated scf accuracy    <       0.00000141 Ry

     iteration #  6     ecut=    50.00 Ry     beta=0.70
     Davidson diagonalization with overlap
     ethr =  5.03E-09,  avg # of iterations =  4.1

     total cpu time spent up to now is       12.1 secs

     total energy              =    -318.48923694 Ry
     Harris-Foulkes estimate   =    -318.48923700 Ry
     estimated scf accuracy    <       0.00000009 Ry

     iteration #  7     ecut=    50.00 Ry     beta=0.70
     Davidson diagonalization with overlap
     ethr =  3.14E-10,  avg # of iterations =  3.2

     total cpu time spent up to now is       13.9 secs

     End of self-consistent calculation

          k =-0.0833 0.0833 0.0833 (  3047 PWs)   bands (ev):

   -14.8937 -14.8937 -14.8876 -14.8380 -14.8380 -14.6214 -14.6214 -14.6086
   -14.5949 -14.5949  -3.2750   4.7403   6.6054   6.6054

          k =-0.2500 0.2500-0.0833 (  3033 PWs)   bands (ev):

   -14.9089 -14.9037 -14.8803 -14.8231 -14.8134 -14.6493 -14.6380 -14.6102
   -14.5861 -14.5741  -2.9589   3.2194   5.6122   6.3793

          k =-0.4167 0.4167-0.2500 (  3036 PWs)   bands (ev):

   -14.9186 -14.9179 -14.8640 -14.8044 -14.7934 -14.6657 -14.6526 -14.6343
   -14.5669 -14.5646  -2.2644   1.3930   5.1077   5.8407

          k = 0.4167-0.4167 0.5833 (  3043 PWs)   bands (ev):

   -14.9237 -14.9183 -14.8592 -14.7942 -14.7927 -14.6661 -14.6617 -14.6399
   -14.5655 -14.5599  -1.8719   0.6896   5.0834   5.5514

          k = 0.2500-0.2500 0.4167 (  3031 PWs)   bands (ev):

   -14.9180 -14.9107 -14.8720 -14.8093 -14.7964 -14.6687 -14.6455 -14.6223
   -14.5748 -14.5654  -2.5185   1.9476   5.4738   5.6486

          k = 0.0833-0.0833 0.2500 (  3041 PWs)   bands (ev):

   -14.9018 -14.8978 -14.8878 -14.8317 -14.8197 -14.6484 -14.6232 -14.6041
   -14.5928 -14.5825  -3.1146   3.8729   6.1084   6.1191

          k =-0.0833 0.4167 0.0833 (  3023 PWs)   bands (ev):

   -14.9101 -14.9057 -14.8863 -14.8174 -14.7905 -14.6833 -14.6342 -14.5985
   -14.5834 -14.5747  -2.7964   2.8508   5.4556   5.5363

          k =-0.2500 0.5833-0.0833 (  3035 PWs)   bands (ev):

   -14.9261 -14.9201 -14.8617 -14.7955 -14.7625 -14.7121 -14.6566 -14.6248
   -14.5645 -14.5573  -2.2006   1.5403   4.5423   5.2066

          k = 0.5833-0.2500 0.7500 (  3053 PWs)   bands (ev):

   -14.9397 -14.9264 -14.8343 -14.7751 -14.7623 -14.7075 -14.6820 -14.6547
   -14.5561 -14.5431  -1.5386   0.4816   4.0397   5.0582

          k = 0.4167-0.0833 0.5833 (  3047 PWs)   bands (ev):

   -14.9335 -14.9255 -14.8412 -14.7929 -14.7661 -14.6996 -14.6626 -14.6531
   -14.5567 -14.5505  -1.9606   1.1130   4.1085   5.3893

          k = 0.2500 0.0833 0.4167 (  3031 PWs)   bands (ev):

   -14.9168 -14.9121 -14.8725 -14.8131 -14.7920 -14.6767 -14.6421 -14.6169
   -14.5757 -14.5663  -2.6515   2.3934   5.0316   5.8463

          k =-0.0833 0.7500 0.0833 (  3041 PWs)   bands (ev):

   -14.9276 -14.9241 -14.8597 -14.7698 -14.7625 -14.7191 -14.6801 -14.6223
   -14.5591 -14.5552  -1.7135   0.8211   4.5240   4.7167

          k = 0.7500-0.0833 0.9167 (  3049 PWs)   bands (ev):

   -14.9391 -14.9319 -14.8211 -14.7825 -14.7416 -14.7102 -14.6989 -14.6617
   -14.5493 -14.5423  -0.9433  -0.1210   4.0191   4.4776

          k = 0.5833 0.0833 0.7500 (  3050 PWs)   bands (ev):

   -14.9449 -14.9304 -14.8204 -14.7577 -14.7427 -14.7288 -14.7029 -14.6639
   -14.5510 -14.5370  -1.2514   0.2214   3.6996   4.8633

          k = 0.4167 0.2500 0.5833 (  3043 PWs)   bands (ev):

   -14.9300 -14.9209 -14.8503 -14.7937 -14.7802 -14.6833 -14.6618 -14.6451
   -14.5623 -14.5536  -1.9179   0.8879   4.5695   5.4427

          k =-0.0833-0.9167 0.0833 (  3041 PWs)   bands (ev):

   -14.9321 -14.9283 -14.8339 -14.7998 -14.7401 -14.7095 -14.6832 -14.6490
   -14.5527 -14.5490  -0.9731  -0.1164   4.3295   4.5434

          k =-0.2500-0.7500-0.0833 (  3045 PWs)   bands (ev):

   -14.9344 -14.9275 -14.8443 -14.7705 -14.7495 -14.7294 -14.6813 -14.6398
   -14.5551 -14.5480  -1.6212   0.6919   4.1973   4.7278

          k =-0.0833-0.5833 0.0833 (  3039 PWs)   bands (ev):

   -14.9196 -14.9160 -14.8775 -14.7962 -14.7561 -14.7226 -14.6543 -14.6044
   -14.5705 -14.5654  -2.3262   1.8200   4.9060   5.0549

          k =-0.2500 0.2500 0.2500 (  3028 PWs)   bands (ev):

   -14.9083 -14.9083 -14.8781 -14.8141 -14.8141 -14.6450 -14.6450 -14.6194
   -14.5763 -14.5763  -2.8100   2.6503   6.0707   6.0707

          k =-0.4167 0.4167 0.0833 (  3044 PWs)   bands (ev):

   -14.9235 -14.9208 -14.8559 -14.8066 -14.7849 -14.6761 -14.6531 -14.6386
   -14.5632 -14.5610  -2.3681   1.7664   4.5140   5.9059

          k = 0.4167-0.4167 0.9167 (  3044 PWs)   bands (ev):

   -14.9411 -14.9268 -14.8294 -14.7783 -14.7601 -14.6968 -14.6919 -14.6593
   -14.5544 -14.5417  -1.6303   0.6539   3.8003   5.3201

          k = 0.2500-0.2500 0.7500 (  3044 PWs)   bands (ev):

   -14.9388 -14.9245 -14.8417 -14.7713 -14.7490 -14.7276 -14.6813 -14.6439
   -14.5583 -14.5433  -1.5814   0.5871   4.0725   4.9718

          k =-0.2500 0.5833 0.2500 (  3042 PWs)   bands (ev):

   -14.9295 -14.9174 -14.8595 -14.7946 -14.7730 -14.6988 -14.6582 -14.6297
   -14.5675 -14.5538  -2.0988   1.2528   4.6827   5.2586

          k = 0.5833-0.2500 1.0833 (  3050 PWs)   bands (ev):

   -14.9406 -14.9314 -14.8247 -14.7705 -14.7420 -14.7302 -14.6869 -14.6616
   -14.5503 -14.5418  -1.4548   0.4708   3.8783   4.7634

          k = 0.4167-0.0833 0.9167 (  3053 PWs)   bands (ev):

   -14.9435 -14.9367 -14.8043 -14.7623 -14.7446 -14.7176 -14.7104 -14.6775
   -14.5446 -14.5379  -0.9117  -0.1276   3.8288   4.3308

          k =-0.2500-1.0833 0.2500 (  3060 PWs)   bands (ev):

   -14.9448 -14.9287 -14.8248 -14.7565 -14.7447 -14.7238 -14.7082 -14.6590
   -14.5527 -14.5371  -1.0620   0.0070   3.7426   4.8216

          k =-0.4167 0.4167 0.4167 (  3034 PWs)   bands (ev):

   -14.9160 -14.9160 -14.8689 -14.7993 -14.7993 -14.6574 -14.6574 -14.6311
   -14.5678 -14.5678  -2.0813   0.9722   5.7131   5.7131

          k = 0.4167-0.4167 1.2500 (  3042 PWs)   bands (ev):

   -14.9346 -14.9231 -14.8419 -14.7850 -14.7782 -14.6790 -14.6782 -14.6523
   -14.5592 -14.5487  -1.7080   0.6078   4.2980   5.4053

     highest occupied level (ev):     6.6054

!    total energy              =    -318.48923698 Ry
     Harris-Foulkes estimate   =    -318.48923698 Ry
     estimated scf accuracy    <          2.3E-09 Ry

     The total energy is the sum of the following terms:

     one-electron contribution =    -164.49138832 Ry
     hartree contribution      =      98.47344085 Ry
     xc contribution           =     -85.93936260 Ry
     ewald contribution        =    -166.53192692 Ry

     convergence has been achieved in   7 iterations


     Computing stress (Cartesian axis) and pressure

          total   stress  (Ry/bohr**3)                   (kbar)     P=  -26.26
  -0.00017852  -0.00000000   0.00000000        -26.26     -0.00      0.00
  -0.00000000  -0.00017852   0.00000000         -0.00    -26.26      0.00
   0.00000000   0.00000000  -0.00017852          0.00      0.00    -26.26


     Writing output data file sn.a.12.68.6.save

     init_run     :      0.99s CPU      1.02s WALL (       1 calls)
     electrons    :     12.27s CPU     12.82s WALL (       1 calls)
     stress       :      0.80s CPU      0.84s WALL (       1 calls)

     Called by init_run:
     wfcinit      :      0.49s CPU      0.51s WALL (       1 calls)
     potinit      :      0.06s CPU      0.06s WALL (       1 calls)

     Called by electrons:
     c_bands      :      9.24s CPU      9.57s WALL (       7 calls)
     sum_band     :      2.15s CPU      2.28s WALL (       7 calls)
     v_of_rho     :      0.37s CPU      0.38s WALL (       8 calls)
     newd         :      0.56s CPU      0.64s WALL (       8 calls)
     mix_rho      :      0.03s CPU      0.03s WALL (       7 calls)

     Called by c_bands:
     init_us_2    :      0.19s CPU      0.19s WALL (     448 calls)
     cegterg      :      8.90s CPU      9.21s WALL (     196 calls)

     Called by sum_band:
     sum_band:bec :      0.00s CPU      0.00s WALL (     196 calls)
     addusdens    :      0.56s CPU      0.67s WALL (       7 calls)

     Called by *egterg:
     h_psi        :      8.17s CPU      8.48s WALL (     808 calls)
     s_psi        :      0.10s CPU      0.10s WALL (     808 calls)
     g_psi        :      0.04s CPU      0.04s WALL (     584 calls)
     cdiaghg      :      0.35s CPU      0.35s WALL (     780 calls)

     Called by h_psi:
     h_psi:pot    :      8.13s CPU      8.44s WALL (     808 calls)
     h_psi:calbec :      0.24s CPU      0.24s WALL (     808 calls)
     vloc_psi     :      7.76s CPU      8.06s WALL (     808 calls)
     add_vuspsi   :      0.12s CPU      0.13s WALL (     808 calls)

     General routines
     calbec       :      0.31s CPU      0.31s WALL (    1032 calls)
     fft          :      0.21s CPU      0.22s WALL (     138 calls)
     ffts         :      0.02s CPU      0.02s WALL (      15 calls)
     fftw         :      7.58s CPU      7.88s WALL (   21254 calls)
     interpolate  :      0.04s CPU      0.05s WALL (      15 calls)
     davcio       :      0.00s CPU      0.00s WALL (      28 calls)

     Parallel routines
     fft_scatter  :      1.21s CPU      1.25s WALL (   21407 calls)

     PWSCF        :    14.18s CPU        14.81s WALL


   This run was terminated on:   1:36:30  23Nov2017            

=------------------------------------------------------------------------------=
   JOB DONE.
=------------------------------------------------------------------------------=
