
     Program PWSCF v.6.1 (svn rev. 13369) starts on 23Nov2017 at  1:36:30 

     This program is part of the open-source Quantum ESPRESSO suite
     for quantum simulation of materials; please cite
         "P. Giannozzi et al., J. Phys.:Condens. Matter 21 395502 (2009);
          URL http://www.quantum-espresso.org", 
     in publications or presentations arising from this work. More details at
     http://www.quantum-espresso.org/quote

     Parallel version (MPI), running on     4 processors
     R & G space division:  proc/nbgrp/npool/nimage =       4
     Waiting for input...
     Reading input from standard input
     Message from routine read_cards :
     DEPRECATED: no units specified in ATOMIC_POSITIONS card
     Message from routine read_cards :
     ATOMIC_POSITIONS: units set to alat

     Current dimensions of program PWSCF are:
     Max number of different atomic species (ntypx) = 10
     Max number of k-points (npk) =  40000
     Max angular momentum in pseudopotentials (lmaxx) =  3

     Subspace diagonalization in iterative solution of the eigenvalue problem:
     a serial algorithm will be used


     Parallelization info
     --------------------
     sticks:   dense  smooth     PW     G-vecs:    dense   smooth      PW
     Min         555     277     84                17259     6076    1003
     Max         556     278     85                17263     6078    1005
     Sum        2221    1111    337                69041    24309    4015



     bravais-lattice index     =            2
     lattice parameter (alat)  =      12.6800  a.u.
     unit-cell volume          =     509.6802 (a.u.)^3
     number of atoms/cell      =            2
     number of atomic types    =            1
     number of electrons       =        28.00
     number of Kohn-Sham states=           14
     kinetic-energy cutoff     =      50.0000  Ry
     charge density cutoff     =     400.0000  Ry
     convergence threshold     =      1.0E-08
     mixing beta               =       0.7000
     number of iterations used =            8  plain     mixing
     Exchange-correlation      =  SLA  PW   PBX  PBC ( 1  4  3  4 0 0)

     celldm(1)=  12.680000  celldm(2)=   0.000000  celldm(3)=   0.000000
     celldm(4)=   0.000000  celldm(5)=   0.000000  celldm(6)=   0.000000

     crystal axes: (cart. coord. in units of alat)
               a(1) = (  -0.500000   0.000000   0.500000 )  
               a(2) = (   0.000000   0.500000   0.500000 )  
               a(3) = (  -0.500000   0.500000   0.000000 )  

     reciprocal axes: (cart. coord. in units 2 pi/alat)
               b(1) = ( -1.000000 -1.000000  1.000000 )  
               b(2) = (  1.000000  1.000000  1.000000 )  
               b(3) = ( -1.000000  1.000000 -1.000000 )  


     PseudoPot. # 1 for Sn read from file:
     /home/s1333534/quantum_espresso/qe-6.1/pseudo/sn_pbe_v1.4.uspp.F.UPF
     MD5 check sum: 469debedee59599fedebd795477fea03
     Pseudo is Ultrasoft + core correction, Zval = 14.0
     Generated by new atomic code, or converted to UPF format
     Using radial grid of  891 points,  6 beta functions with: 
                l(1) =   0
                l(2) =   0
                l(3) =   1
                l(4) =   1
                l(5) =   2
                l(6) =   2
     Q(r) pseudized with  8 coefficients,  rinner =    1.350   1.350   1.350
                                                       1.350   1.350

     atomic species   valence    mass     pseudopotential
        Sn            14.00   118.71000     Sn( 1.00)

     48 Sym. Ops., with inversion, found (24 have fractional translation)



   Cartesian axes

     site n.     atom                  positions (alat units)
         1           Sn  tau(   1) = (   0.0000000   0.0000000   0.0000000  )
         2           Sn  tau(   2) = (   0.2500000   0.2500000   0.2500000  )

     number of k points=    60
                       cart. coord. in units 2pi/alat
        k(    1) = (  -0.0625000   0.0625000   0.0625000), wk =   0.0078125
        k(    2) = (  -0.1875000   0.1875000  -0.0625000), wk =   0.0234375
        k(    3) = (  -0.3125000   0.3125000  -0.1875000), wk =   0.0234375
        k(    4) = (  -0.4375000   0.4375000  -0.3125000), wk =   0.0234375
        k(    5) = (   0.4375000  -0.4375000   0.5625000), wk =   0.0234375
        k(    6) = (   0.3125000  -0.3125000   0.4375000), wk =   0.0234375
        k(    7) = (   0.1875000  -0.1875000   0.3125000), wk =   0.0234375
        k(    8) = (   0.0625000  -0.0625000   0.1875000), wk =   0.0234375
        k(    9) = (  -0.0625000   0.3125000   0.0625000), wk =   0.0234375
        k(   10) = (  -0.1875000   0.4375000  -0.0625000), wk =   0.0468750
        k(   11) = (  -0.3125000   0.5625000  -0.1875000), wk =   0.0468750
        k(   12) = (   0.5625000  -0.3125000   0.6875000), wk =   0.0468750
        k(   13) = (   0.4375000  -0.1875000   0.5625000), wk =   0.0468750
        k(   14) = (   0.3125000  -0.0625000   0.4375000), wk =   0.0468750
        k(   15) = (   0.1875000   0.0625000   0.3125000), wk =   0.0468750
        k(   16) = (  -0.0625000   0.5625000   0.0625000), wk =   0.0234375
        k(   17) = (  -0.1875000   0.6875000  -0.0625000), wk =   0.0468750
        k(   18) = (   0.6875000  -0.1875000   0.8125000), wk =   0.0468750
        k(   19) = (   0.5625000  -0.0625000   0.6875000), wk =   0.0468750
        k(   20) = (   0.4375000   0.0625000   0.5625000), wk =   0.0468750
        k(   21) = (   0.3125000   0.1875000   0.4375000), wk =   0.0468750
        k(   22) = (  -0.0625000   0.8125000   0.0625000), wk =   0.0234375
        k(   23) = (   0.8125000  -0.0625000   0.9375000), wk =   0.0468750
        k(   24) = (   0.6875000   0.0625000   0.8125000), wk =   0.0468750
        k(   25) = (   0.5625000   0.1875000   0.6875000), wk =   0.0468750
        k(   26) = (   0.4375000   0.3125000   0.5625000), wk =   0.0468750
        k(   27) = (  -0.0625000  -0.9375000   0.0625000), wk =   0.0234375
        k(   28) = (  -0.1875000  -0.8125000  -0.0625000), wk =   0.0468750
        k(   29) = (  -0.3125000  -0.6875000  -0.1875000), wk =   0.0468750
        k(   30) = (  -0.0625000  -0.6875000   0.0625000), wk =   0.0234375
        k(   31) = (  -0.1875000  -0.5625000  -0.0625000), wk =   0.0468750
        k(   32) = (  -0.0625000  -0.4375000   0.0625000), wk =   0.0234375
        k(   33) = (  -0.1875000   0.1875000   0.1875000), wk =   0.0078125
        k(   34) = (  -0.3125000   0.3125000   0.0625000), wk =   0.0234375
        k(   35) = (  -0.4375000   0.4375000  -0.0625000), wk =   0.0234375
        k(   36) = (   0.4375000  -0.4375000   0.8125000), wk =   0.0234375
        k(   37) = (   0.3125000  -0.3125000   0.6875000), wk =   0.0234375
        k(   38) = (   0.1875000  -0.1875000   0.5625000), wk =   0.0234375
        k(   39) = (  -0.1875000   0.4375000   0.1875000), wk =   0.0234375
        k(   40) = (  -0.3125000   0.5625000   0.0625000), wk =   0.0468750
        k(   41) = (   0.5625000  -0.3125000   0.9375000), wk =   0.0468750
        k(   42) = (   0.4375000  -0.1875000   0.8125000), wk =   0.0468750
        k(   43) = (   0.3125000  -0.0625000   0.6875000), wk =   0.0468750
        k(   44) = (  -0.1875000   0.6875000   0.1875000), wk =   0.0234375
        k(   45) = (   0.6875000  -0.1875000   1.0625000), wk =   0.0468750
        k(   46) = (   0.5625000  -0.0625000   0.9375000), wk =   0.0468750
        k(   47) = (   0.4375000   0.0625000   0.8125000), wk =   0.0468750
        k(   48) = (  -0.1875000  -1.0625000   0.1875000), wk =   0.0234375
        k(   49) = (  -0.3125000  -0.9375000   0.0625000), wk =   0.0468750
        k(   50) = (  -0.1875000  -0.8125000   0.1875000), wk =   0.0234375
        k(   51) = (  -0.3125000   0.3125000   0.3125000), wk =   0.0078125
        k(   52) = (  -0.4375000   0.4375000   0.1875000), wk =   0.0234375
        k(   53) = (   0.4375000  -0.4375000   1.0625000), wk =   0.0234375
        k(   54) = (   0.3125000  -0.3125000   0.9375000), wk =   0.0234375
        k(   55) = (  -0.3125000   0.5625000   0.3125000), wk =   0.0234375
        k(   56) = (   0.5625000  -0.3125000   1.1875000), wk =   0.0468750
        k(   57) = (   0.4375000  -0.1875000   1.0625000), wk =   0.0468750
        k(   58) = (  -0.3125000  -1.1875000   0.3125000), wk =   0.0234375
        k(   59) = (  -0.4375000   0.4375000   0.4375000), wk =   0.0078125
        k(   60) = (   0.4375000  -0.4375000   1.3125000), wk =   0.0234375

     Dense  grid:    69041 G-vectors     FFT dimensions: (  60,  60,  60)

     Smooth grid:    24309 G-vectors     FFT dimensions: (  45,  45,  45)

     Estimated max dynamical RAM per process >      22.26MB

     Estimated total allocated dynamical RAM >      89.04MB

     Initial potential from superposition of free atoms

     starting charge   25.99991, renormalised to   28.00000
     Starting wfc are   18 randomized atomic wfcs

     total cpu time spent up to now is        1.6 secs

     per-process dynamical memory:    26.2 Mb

     Self-consistent Calculation

     iteration #  1     ecut=    50.00 Ry     beta=0.70
     Davidson diagonalization with overlap
     ethr =  1.00E-02,  avg # of iterations =  2.5

     total cpu time spent up to now is        5.0 secs

     total energy              =    -317.48115397 Ry
     Harris-Foulkes estimate   =    -319.55322924 Ry
     estimated scf accuracy    <       2.52431741 Ry

     iteration #  2     ecut=    50.00 Ry     beta=0.70
     Davidson diagonalization with overlap
     ethr =  9.02E-03,  avg # of iterations =  3.0

     total cpu time spent up to now is        8.6 secs

     total energy              =    -318.39297369 Ry
     Harris-Foulkes estimate   =    -318.71201728 Ry
     estimated scf accuracy    <       0.47455743 Ry

     iteration #  3     ecut=    50.00 Ry     beta=0.70
     Davidson diagonalization with overlap
     ethr =  1.69E-03,  avg # of iterations =  2.0

     total cpu time spent up to now is       11.9 secs

     total energy              =    -318.48838776 Ry
     Harris-Foulkes estimate   =    -318.48995599 Ry
     estimated scf accuracy    <       0.00287729 Ry

     iteration #  4     ecut=    50.00 Ry     beta=0.70
     Davidson diagonalization with overlap
     ethr =  1.03E-05,  avg # of iterations =  3.0

     total cpu time spent up to now is       15.4 secs

     total energy              =    -318.48927208 Ry
     Harris-Foulkes estimate   =    -318.48938827 Ry
     estimated scf accuracy    <       0.00017192 Ry

     iteration #  5     ecut=    50.00 Ry     beta=0.70
     Davidson diagonalization with overlap
     ethr =  6.14E-07,  avg # of iterations =  3.0

     total cpu time spent up to now is       18.9 secs

     total energy              =    -318.48932541 Ry
     Harris-Foulkes estimate   =    -318.48932617 Ry
     estimated scf accuracy    <       0.00000153 Ry

     iteration #  6     ecut=    50.00 Ry     beta=0.70
     Davidson diagonalization with overlap
     ethr =  5.46E-09,  avg # of iterations =  4.0

     total cpu time spent up to now is       22.6 secs

     total energy              =    -318.48932623 Ry
     Harris-Foulkes estimate   =    -318.48932627 Ry
     estimated scf accuracy    <       0.00000006 Ry

     iteration #  7     ecut=    50.00 Ry     beta=0.70
     Davidson diagonalization with overlap
     ethr =  2.30E-10,  avg # of iterations =  3.3

     total cpu time spent up to now is       26.2 secs

     End of self-consistent calculation

          k =-0.0625 0.0625 0.0625 (  3053 PWs)   bands (ev):

   -14.8926 -14.8926 -14.8894 -14.8408 -14.8408 -14.6185 -14.6185 -14.6084
   -14.5985 -14.5985  -3.3020   4.9612   6.6545   6.6545

          k =-0.1875 0.1875-0.0625 (  3030 PWs)   bands (ev):

   -14.9034 -14.8986 -14.8854 -14.8306 -14.8244 -14.6393 -14.6309 -14.6070
   -14.5927 -14.5815  -3.1221   3.8630   6.0009   6.5210

          k =-0.3125 0.3125-0.1875 (  3024 PWs)   bands (ev):

   -14.9136 -14.9105 -14.8749 -14.8143 -14.8051 -14.6564 -14.6456 -14.6210
   -14.5770 -14.5705  -2.6952   2.3620   5.5170   6.1134

          k =-0.4375 0.4375-0.3125 (  3036 PWs)   bands (ev):

   -14.9188 -14.9182 -14.8653 -14.8020 -14.7953 -14.6640 -14.6553 -14.6352
   -14.5670 -14.5658  -2.1344   1.1096   5.2735   5.7665

          k = 0.4375-0.4375 0.5625 (  3042 PWs)   bands (ev):

   -14.9218 -14.9183 -14.8631 -14.7961 -14.7954 -14.6631 -14.6610 -14.6383
   -14.5666 -14.5630  -1.8878   0.6835   5.2704   5.5992

          k = 0.3125-0.3125 0.4375 (  3029 PWs)   bands (ev):

   -14.9193 -14.9136 -14.8694 -14.8048 -14.7970 -14.6654 -14.6515 -14.6287
   -14.5718 -14.5653  -2.3193   1.4708   5.4928   5.6483

          k = 0.1875-0.1875 0.3125 (  3030 PWs)   bands (ev):

   -14.9110 -14.9058 -14.8801 -14.8199 -14.8097 -14.6561 -14.6372 -14.6151
   -14.5821 -14.5739  -2.8608   2.8574   5.8998   5.9108

          k = 0.0625-0.0625 0.1875 (  3043 PWs)   bands (ev):

   -14.8979 -14.8952 -14.8891 -14.8370 -14.8294 -14.6375 -14.6193 -14.6054
   -14.5974 -14.5880  -3.2113   4.3471   6.3239   6.3518

          k =-0.0625 0.3125 0.0625 (  3030 PWs)   bands (ev):

   -14.9036 -14.9002 -14.8904 -14.8286 -14.8102 -14.6620 -14.6248 -14.5992
   -14.5919 -14.5817  -3.0308   3.5765   5.8682   5.8854

          k =-0.1875 0.4375-0.0625 (  3026 PWs)   bands (ev):

   -14.9155 -14.9108 -14.8786 -14.8140 -14.7881 -14.6851 -14.6398 -14.6095
   -14.5784 -14.5690  -2.6809   2.5121   5.1243   5.6512

          k =-0.3125 0.5625-0.1875 (  3035 PWs)   bands (ev):

   -14.9289 -14.9190 -14.8582 -14.7974 -14.7752 -14.6955 -14.6571 -14.6334
   -14.5665 -14.5554  -2.1378   1.3198   4.6247   5.3625

          k = 0.5625-0.3125 0.6875 (  3049 PWs)   bands (ev):

   -14.9350 -14.9233 -14.8441 -14.7848 -14.7782 -14.6873 -14.6733 -14.6505
   -14.5606 -14.5493  -1.6987   0.5897   4.3679   5.2985

          k = 0.4375-0.1875 0.5625 (  3041 PWs)   bands (ev):

   -14.9315 -14.9232 -14.8469 -14.7953 -14.7769 -14.6866 -14.6614 -14.6509
   -14.5604 -14.5534  -1.9564   0.9986   4.3753   5.4976

          k = 0.3125-0.0625 0.4375 (  3035 PWs)   bands (ev):

   -14.9203 -14.9179 -14.8650 -14.8102 -14.7879 -14.6792 -14.6479 -14.6270
   -14.5700 -14.5635  -2.5207   2.0985   4.7286   5.8707

          k = 0.1875 0.0625 0.3125 (  3028 PWs)   bands (ev):

   -14.9094 -14.9041 -14.8824 -14.8241 -14.8092 -14.6592 -14.6335 -14.6078
   -14.5873 -14.5747  -2.9446   3.2095   5.5555   6.1523

          k =-0.0625 0.5625 0.0625 (  3042 PWs)   bands (ev):

   -14.9175 -14.9151 -14.8820 -14.8001 -14.7603 -14.7195 -14.6516 -14.6005
   -14.5729 -14.5694  -2.4079   1.9843   5.0103   5.0957

          k =-0.1875 0.6875-0.0625 (  3038 PWs)   bands (ev):

   -14.9289 -14.9241 -14.8599 -14.7808 -14.7431 -14.7371 -14.6710 -14.6245
   -14.5607 -14.5553  -1.9098   1.1054   4.4649   4.8427

          k = 0.6875-0.1875 0.8125 (  3051 PWs)   bands (ev):

   -14.9422 -14.9285 -14.8321 -14.7624 -14.7464 -14.7321 -14.6923 -14.6538
   -14.5545 -14.5410  -1.3570   0.3340   3.9072   4.8127

          k = 0.5625-0.0625 0.6875 (  3050 PWs)   bands (ev):

   -14.9444 -14.9296 -14.8242 -14.7669 -14.7503 -14.7165 -14.6991 -14.6626
   -14.5528 -14.5390  -1.4200   0.4141   3.7028   5.0567

          k = 0.4375 0.0625 0.5625 (  3050 PWs)   bands (ev):

   -14.9343 -14.9260 -14.8408 -14.7947 -14.7680 -14.6966 -14.6626 -14.6564
   -14.5569 -14.5511  -1.9827   1.1506   4.0683   5.4751

          k = 0.3125 0.1875 0.4375 (  3031 PWs)   bands (ev):

   -14.9205 -14.9146 -14.8678 -14.8083 -14.7924 -14.6732 -14.6483 -14.6269
   -14.5721 -14.5639  -2.4518   1.8377   5.0738   5.7801

          k =-0.0625 0.8125 0.0625 (  3039 PWs)   bands (ev):

   -14.9287 -14.9267 -14.8534 -14.7793 -14.7594 -14.7044 -14.6912 -14.6299
   -14.5564 -14.5542  -1.4590   0.4693   4.4958   4.6161

          k = 0.8125-0.0625 0.9375 (  3042 PWs)   bands (ev):

   -14.9365 -14.9313 -14.8241 -14.7963 -14.7373 -14.7140 -14.6870 -14.6598
   -14.5507 -14.5458  -0.8595  -0.2273   4.1667   4.4734

          k = 0.6875 0.0625 0.8125 (  3049 PWs)   bands (ev):

   -14.9452 -14.9310 -14.8202 -14.7595 -14.7426 -14.7214 -14.7119 -14.6638
   -14.5512 -14.5374  -0.9907  -0.0650   3.7404   4.7039

          k = 0.5625 0.1875 0.6875 (  3050 PWs)   bands (ev):

   -14.9411 -14.9270 -14.8321 -14.7741 -14.7641 -14.7036 -14.6874 -14.6578
   -14.5558 -14.5426  -1.5200   0.4638   3.9476   5.1376

          k = 0.4375 0.3125 0.5625 (  3043 PWs)   bands (ev):

   -14.9268 -14.9199 -14.8560 -14.7958 -14.7882 -14.6731 -14.6610 -14.6431
   -14.5648 -14.5580  -1.9172   0.8073   4.8537   5.5363

          k =-0.0625-0.9375 0.0625 (  3032 PWs)   bands (ev):

   -14.9314 -14.9290 -14.8322 -14.8067 -14.7366 -14.7137 -14.6771 -14.6515
   -14.5528 -14.5506  -0.8765  -0.2289   4.3906   4.5176

          k =-0.1875-0.8125-0.0625 (  3048 PWs)   bands (ev):

   -14.9338 -14.9289 -14.8438 -14.7708 -14.7599 -14.7117 -14.6918 -14.6404
   -14.5542 -14.5494  -1.4141   0.4222   4.2671   4.5975

          k =-0.3125-0.6875-0.1875 (  3041 PWs)   bands (ev):

   -14.9364 -14.9241 -14.8460 -14.7816 -14.7567 -14.7184 -14.6729 -14.6421
   -14.5601 -14.5472  -1.7650   0.8160   4.2171   5.0321

          k =-0.0625-0.6875 0.0625 (  3046 PWs)   bands (ev):

   -14.9241 -14.9220 -14.8702 -14.7808 -14.7498 -14.7324 -14.6702 -14.6125
   -14.5637 -14.5611  -1.9718   1.2108   4.7040   4.8107

          k =-0.1875-0.5625-0.0625 (  3036 PWs)   bands (ev):

   -14.9224 -14.9178 -14.8716 -14.7993 -14.7640 -14.7134 -14.6532 -14.6143
   -14.5691 -14.5627  -2.3344   1.8059   4.7540   5.2001

          k =-0.0625-0.4375 0.0625 (  3033 PWs)   bands (ev):

   -14.9103 -14.9073 -14.8886 -14.8162 -14.7866 -14.6896 -14.6360 -14.5957
   -14.5831 -14.5769  -2.7621   2.7780   5.4048   5.4607

          k =-0.1875 0.1875 0.1875 (  3029 PWs)   bands (ev):

   -14.9040 -14.9040 -14.8829 -14.8234 -14.8234 -14.6376 -14.6376 -14.6151
   -14.5823 -14.5823  -3.0346   3.4382   6.2724   6.2724

          k =-0.3125 0.3125 0.0625 (  3027 PWs)   bands (ev):

   -14.9147 -14.9107 -14.8734 -14.8177 -14.8026 -14.6606 -14.6452 -14.6170
   -14.5794 -14.5685  -2.7736   2.6788   5.1313   6.2397

          k =-0.4375 0.4375-0.0625 (  3047 PWs)   bands (ev):

   -14.9268 -14.9229 -14.8518 -14.8050 -14.7813 -14.6806 -14.6552 -14.6449
   -14.5603 -14.5602  -2.2856   1.6304   4.3589   5.8361

          k = 0.4375-0.4375 0.8125 (  3040 PWs)   bands (ev):

   -14.9365 -14.9250 -14.8386 -14.7870 -14.7733 -14.6849 -14.6781 -14.6561
   -14.5581 -14.5479  -1.7413   0.7037   4.1327   5.4295

          k = 0.3125-0.3125 0.6875 (  3043 PWs)   bands (ev):

   -14.9364 -14.9223 -14.8460 -14.7823 -14.7701 -14.7020 -14.6728 -14.6444
   -14.5618 -14.5475  -1.7271   0.6815   4.3034   5.2011

          k = 0.1875-0.1875 0.5625 (  3045 PWs)   bands (ev):

   -14.9267 -14.9164 -14.8674 -14.7985 -14.7694 -14.7064 -14.6545 -14.6203
   -14.5706 -14.5582  -2.2673   1.6164   4.7772   5.2110

          k =-0.1875 0.4375 0.1875 (  3020 PWs)   bands (ev):

   -14.9185 -14.9098 -14.8754 -14.8117 -14.7910 -14.6800 -14.6422 -14.6152
   -14.5777 -14.5661  -2.6036   2.2398   5.3115   5.5400

          k =-0.3125 0.5625 0.0625 (  3037 PWs)   bands (ev):

   -14.9277 -14.9230 -14.8558 -14.7979 -14.7680 -14.7042 -14.6565 -14.6349
   -14.5617 -14.5573  -2.1906   1.5068   4.3966   5.3652

          k = 0.5625-0.3125 0.9375 (  3050 PWs)   bands (ev):

   -14.9399 -14.9301 -14.8296 -14.7790 -14.7505 -14.7196 -14.6805 -14.6602
   -14.5527 -14.5440  -1.6225   0.6741   3.8826   4.9912

          k = 0.4375-0.1875 0.8125 (  3051 PWs)   bands (ev):

   -14.9433 -14.9310 -14.8235 -14.7663 -14.7470 -14.7259 -14.6933 -14.6634
   -14.5518 -14.5398  -1.3315   0.2947   3.8439   4.7851

          k = 0.3125-0.0625 0.6875 (  3045 PWs)   bands (ev):

   -14.9342 -14.9283 -14.8441 -14.7810 -14.7461 -14.7303 -14.6732 -14.6435
   -14.5554 -14.5499  -1.7904   0.9155   4.1564   4.9004

          k =-0.1875 0.6875 0.1875 (  3040 PWs)   bands (ev):

   -14.9335 -14.9222 -14.8554 -14.7810 -14.7474 -14.7315 -14.6715 -14.6303
   -14.5627 -14.5502  -1.8590   0.9956   4.3489   4.9496

          k = 0.6875-0.1875 1.0625 (  3052 PWs)   bands (ev):

   -14.9389 -14.9328 -14.8285 -14.7612 -14.7571 -14.7223 -14.6934 -14.6567
   -14.5500 -14.5442  -1.3305   0.3313   4.0157   4.5425

          k = 0.5625-0.0625 0.9375 (  3050 PWs)   bands (ev):

   -14.9438 -14.9387 -14.7987 -14.7670 -14.7417 -14.7190 -14.7101 -14.6830
   -14.5436 -14.5385  -0.8162  -0.2253   3.8507   4.2343

          k = 0.4375 0.0625 0.8125 (  3055 PWs)   bands (ev):

   -14.9431 -14.9350 -14.8153 -14.7611 -14.7445 -14.7300 -14.6990 -14.6698
   -14.5477 -14.5399  -1.2205   0.2069   3.8145   4.5452

          k =-0.1875-1.0625 0.1875 (  3051 PWs)   bands (ev):

   -14.9418 -14.9295 -14.8251 -14.7802 -14.7391 -14.7134 -14.7026 -14.6591
   -14.5528 -14.5406  -0.9060  -0.1691   3.9013   4.6775

          k =-0.3125-0.9375 0.0625 (  3053 PWs)   bands (ev):

   -14.9413 -14.9357 -14.8108 -14.7805 -14.7391 -14.7155 -14.7010 -14.6727
   -14.5466 -14.5412  -0.8346  -0.2258   3.9640   4.3373

          k =-0.1875-0.8125 0.1875 (  3053 PWs)   bands (ev):

   -14.9389 -14.9268 -14.8402 -14.7607 -14.7603 -14.7213 -14.6917 -14.6449
   -14.5562 -14.5443  -1.3912   0.3867   4.0524   4.7693

          k =-0.3125 0.3125 0.3125 (  3025 PWs)   bands (ev):

   -14.9128 -14.9128 -14.8748 -14.8071 -14.8071 -14.6517 -14.6517 -14.6251
   -14.5724 -14.5724  -2.5415   1.9210   5.8991   5.8991

          k =-0.4375 0.4375 0.1875 (  3040 PWs)   bands (ev):

   -14.9237 -14.9208 -14.8576 -14.8039 -14.7876 -14.6732 -14.6538 -14.6415
   -14.5631 -14.5626  -2.2323   1.4092   4.7190   5.8142

          k = 0.4375-0.4375 1.0625 (  3042 PWs)   bands (ev):

   -14.9403 -14.9272 -14.8311 -14.7836 -14.7620 -14.6965 -14.6857 -14.6598
   -14.5552 -14.5438  -1.7210   0.7791   3.8268   5.3876

          k = 0.3125-0.3125 0.9375 (  3054 PWs)   bands (ev):

   -14.9464 -14.9292 -14.8241 -14.7472 -14.7460 -14.7330 -14.7083 -14.6613
   -14.5533 -14.5364  -1.2013   0.1609   3.6502   4.9802

          k =-0.3125 0.5625 0.3125 (  3041 PWs)   bands (ev):

   -14.9281 -14.9176 -14.8591 -14.7966 -14.7840 -14.6832 -14.6587 -14.6352
   -14.5680 -14.5564  -2.0407   1.0531   4.8660   5.4052

          k = 0.5625-0.3125 1.1875 (  3046 PWs)   bands (ev):

   -14.9385 -14.9270 -14.8358 -14.7814 -14.7629 -14.7060 -14.6768 -14.6556
   -14.5564 -14.5454  -1.6440   0.6225   4.0756   5.0989

          k = 0.4375-0.1875 1.0625 (  3053 PWs)   bands (ev):

   -14.9456 -14.9339 -14.8135 -14.7537 -14.7420 -14.7318 -14.7083 -14.6705
   -14.5485 -14.5371  -1.1010   0.0674   3.7131   4.6199

          k =-0.3125-1.1875 0.3125 (  3055 PWs)   bands (ev):

   -14.9429 -14.9269 -14.8332 -14.7644 -14.7565 -14.7199 -14.6911 -14.6544
   -14.5563 -14.5404  -1.4193   0.3683   3.8796   5.0555

          k =-0.4375 0.4375 0.4375 (  3043 PWs)   bands (ev):

   -14.9171 -14.9171 -14.8688 -14.7991 -14.7991 -14.6586 -14.6586 -14.6328
   -14.5680 -14.5680  -2.0105   0.8468   5.6921   5.6921

          k = 0.4375-0.4375 1.3125 (  3042 PWs)   bands (ev):

   -14.9296 -14.9212 -14.8510 -14.7913 -14.7867 -14.6708 -14.6694 -14.6482
   -14.5626 -14.5552  -1.7940   0.6443   4.6522   5.5051

     highest occupied level (ev):     6.6545

!    total energy              =    -318.48932626 Ry
     Harris-Foulkes estimate   =    -318.48932626 Ry
     estimated scf accuracy    <          2.8E-09 Ry

     The total energy is the sum of the following terms:

     one-electron contribution =    -164.49036391 Ry
     hartree contribution      =      98.47219620 Ry
     xc contribution           =     -85.93923163 Ry
     ewald contribution        =    -166.53192692 Ry

     convergence has been achieved in   7 iterations


     Computing stress (Cartesian axis) and pressure

          total   stress  (Ry/bohr**3)                   (kbar)     P=  -26.31
  -0.00017883   0.00000000   0.00000000        -26.31      0.00      0.00
   0.00000000  -0.00017883  -0.00000000          0.00    -26.31     -0.00
   0.00000000  -0.00000000  -0.00017883          0.00     -0.00    -26.31


     Writing output data file sn.a.12.68.8.save

     init_run     :      1.55s CPU      1.59s WALL (       1 calls)
     electrons    :     23.78s CPU     24.59s WALL (       1 calls)
     stress       :      1.03s CPU      1.07s WALL (       1 calls)

     Called by init_run:
     wfcinit      :      1.05s CPU      1.08s WALL (       1 calls)
     potinit      :      0.06s CPU      0.06s WALL (       1 calls)

     Called by electrons:
     c_bands      :     19.22s CPU     19.76s WALL (       7 calls)
     sum_band     :      3.69s CPU      3.88s WALL (       7 calls)
     v_of_rho     :      0.36s CPU      0.37s WALL (       8 calls)
     newd         :      0.56s CPU      0.63s WALL (       8 calls)
     mix_rho      :      0.03s CPU      0.03s WALL (       7 calls)

     Called by c_bands:
     init_us_2    :      0.40s CPU      0.41s WALL (     960 calls)
     cegterg      :     18.49s CPU     19.02s WALL (     420 calls)

     Called by sum_band:
     sum_band:bec :      0.00s CPU      0.00s WALL (     420 calls)
     addusdens    :      0.57s CPU      0.67s WALL (       7 calls)

     Called by *egterg:
     h_psi        :     16.95s CPU     17.46s WALL (    1732 calls)
     s_psi        :      0.21s CPU      0.22s WALL (    1732 calls)
     g_psi        :      0.08s CPU      0.08s WALL (    1252 calls)
     cdiaghg      :      0.74s CPU      0.75s WALL (    1672 calls)

     Called by h_psi:
     h_psi:pot    :     16.86s CPU     17.36s WALL (    1732 calls)
     h_psi:calbec :      0.50s CPU      0.51s WALL (    1732 calls)
     vloc_psi     :     16.09s CPU     16.57s WALL (    1732 calls)
     add_vuspsi   :      0.27s CPU      0.27s WALL (    1732 calls)

     General routines
     calbec       :      0.64s CPU      0.66s WALL (    2212 calls)
     fft          :      0.19s CPU      0.20s WALL (     138 calls)
     ffts         :      0.01s CPU      0.01s WALL (      15 calls)
     fftw         :     15.88s CPU     16.41s WALL (   45626 calls)
     interpolate  :      0.04s CPU      0.04s WALL (      15 calls)
     davcio       :      0.00s CPU      0.01s WALL (      60 calls)

     Parallel routines
     fft_scatter  :      2.14s CPU      2.11s WALL (   45779 calls)

     PWSCF        :    26.50s CPU        27.40s WALL


   This run was terminated on:   1:36:58  23Nov2017            

=------------------------------------------------------------------------------=
   JOB DONE.
=------------------------------------------------------------------------------=
