
     Program PWSCF v.6.1 (svn rev. 13369) starts on 23Nov2017 at  1:37:46 

     This program is part of the open-source Quantum ESPRESSO suite
     for quantum simulation of materials; please cite
         "P. Giannozzi et al., J. Phys.:Condens. Matter 21 395502 (2009);
          URL http://www.quantum-espresso.org", 
     in publications or presentations arising from this work. More details at
     http://www.quantum-espresso.org/quote

     Parallel version (MPI), running on     4 processors
     R & G space division:  proc/nbgrp/npool/nimage =       4
     Waiting for input...
     Reading input from standard input
     Message from routine read_cards :
     DEPRECATED: no units specified in ATOMIC_POSITIONS card
     Message from routine read_cards :
     ATOMIC_POSITIONS: units set to alat

     Current dimensions of program PWSCF are:
     Max number of different atomic species (ntypx) = 10
     Max number of k-points (npk) =  40000
     Max angular momentum in pseudopotentials (lmaxx) =  3

     Subspace diagonalization in iterative solution of the eigenvalue problem:
     a serial algorithm will be used


     Parallelization info
     --------------------
     sticks:   dense  smooth     PW     G-vecs:    dense   smooth      PW
     Min         555     277     87                17259     6076    1027
     Max         556     278     88                17263     6078    1028
     Sum        2221    1111    349                69041    24309    4111



     bravais-lattice index     =            2
     lattice parameter (alat)  =      12.6800  a.u.
     unit-cell volume          =     509.6802 (a.u.)^3
     number of atoms/cell      =            2
     number of atomic types    =            1
     number of electrons       =        28.00
     number of Kohn-Sham states=           14
     kinetic-energy cutoff     =      50.0000  Ry
     charge density cutoff     =     400.0000  Ry
     convergence threshold     =      1.0E-08
     mixing beta               =       0.7000
     number of iterations used =            8  plain     mixing
     Exchange-correlation      =  SLA  PW   PBX  PBC ( 1  4  3  4 0 0)

     celldm(1)=  12.680000  celldm(2)=   0.000000  celldm(3)=   0.000000
     celldm(4)=   0.000000  celldm(5)=   0.000000  celldm(6)=   0.000000

     crystal axes: (cart. coord. in units of alat)
               a(1) = (  -0.500000   0.000000   0.500000 )  
               a(2) = (   0.000000   0.500000   0.500000 )  
               a(3) = (  -0.500000   0.500000   0.000000 )  

     reciprocal axes: (cart. coord. in units 2 pi/alat)
               b(1) = ( -1.000000 -1.000000  1.000000 )  
               b(2) = (  1.000000  1.000000  1.000000 )  
               b(3) = ( -1.000000  1.000000 -1.000000 )  


     PseudoPot. # 1 for Sn read from file:
     /home/s1333534/quantum_espresso/qe-6.1/pseudo/sn_pbe_v1.4.uspp.F.UPF
     MD5 check sum: 469debedee59599fedebd795477fea03
     Pseudo is Ultrasoft + core correction, Zval = 14.0
     Generated by new atomic code, or converted to UPF format
     Using radial grid of  891 points,  6 beta functions with: 
                l(1) =   0
                l(2) =   0
                l(3) =   1
                l(4) =   1
                l(5) =   2
                l(6) =   2
     Q(r) pseudized with  8 coefficients,  rinner =    1.350   1.350   1.350
                                                       1.350   1.350

     atomic species   valence    mass     pseudopotential
        Sn            14.00   118.71000     Sn( 1.00)

     48 Sym. Ops., with inversion, found (24 have fractional translation)



   Cartesian axes

     site n.     atom                  positions (alat units)
         1           Sn  tau(   1) = (   0.0000000   0.0000000   0.0000000  )
         2           Sn  tau(   2) = (   0.2500000   0.2500000   0.2500000  )

     number of k points=   182

     Number of k-points >= 100: set verbosity='high' to print them.

     Dense  grid:    69041 G-vectors     FFT dimensions: (  60,  60,  60)

     Smooth grid:    24309 G-vectors     FFT dimensions: (  45,  45,  45)

     Estimated max dynamical RAM per process >      42.07MB

     Estimated total allocated dynamical RAM >     168.27MB

     Initial potential from superposition of free atoms

     starting charge   25.99991, renormalised to   28.00000
     Starting wfc are   18 randomized atomic wfcs

     total cpu time spent up to now is        3.9 secs

     per-process dynamical memory:    47.2 Mb

     Self-consistent Calculation

     iteration #  1     ecut=    50.00 Ry     beta=0.70
     Davidson diagonalization with overlap
     ethr =  1.00E-02,  avg # of iterations =  2.5

     total cpu time spent up to now is       13.9 secs

     total energy              =    -317.48138556 Ry
     Harris-Foulkes estimate   =    -319.55326485 Ry
     estimated scf accuracy    <       2.52406454 Ry

     iteration #  2     ecut=    50.00 Ry     beta=0.70
     Davidson diagonalization with overlap
     ethr =  9.01E-03,  avg # of iterations =  3.0

     total cpu time spent up to now is       24.5 secs

     total energy              =    -318.39304733 Ry
     Harris-Foulkes estimate   =    -318.71202130 Ry
     estimated scf accuracy    <       0.47444638 Ry

     iteration #  3     ecut=    50.00 Ry     beta=0.70
     Davidson diagonalization with overlap
     ethr =  1.69E-03,  avg # of iterations =  2.0

     total cpu time spent up to now is       34.2 secs

     total energy              =    -318.48843028 Ry
     Harris-Foulkes estimate   =    -318.48999629 Ry
     estimated scf accuracy    <       0.00287389 Ry

     iteration #  4     ecut=    50.00 Ry     beta=0.70
     Davidson diagonalization with overlap
     ethr =  1.03E-05,  avg # of iterations =  2.9

     total cpu time spent up to now is       44.5 secs

     total energy              =    -318.48931389 Ry
     Harris-Foulkes estimate   =    -318.48942998 Ry
     estimated scf accuracy    <       0.00017185 Ry

     iteration #  5     ecut=    50.00 Ry     beta=0.70
     Davidson diagonalization with overlap
     ethr =  6.14E-07,  avg # of iterations =  3.0

     total cpu time spent up to now is       55.0 secs

     total energy              =    -318.48936701 Ry
     Harris-Foulkes estimate   =    -318.48936775 Ry
     estimated scf accuracy    <       0.00000150 Ry

     iteration #  6     ecut=    50.00 Ry     beta=0.70
     Davidson diagonalization with overlap
     ethr =  5.37E-09,  avg # of iterations =  4.0

     total cpu time spent up to now is       66.2 secs

     total energy              =    -318.48936779 Ry
     Harris-Foulkes estimate   =    -318.48936783 Ry
     estimated scf accuracy    <       0.00000007 Ry

     iteration #  7     ecut=    50.00 Ry     beta=0.70
     Davidson diagonalization with overlap
     ethr =  2.50E-10,  avg # of iterations =  3.1

     total cpu time spent up to now is       77.0 secs

     End of self-consistent calculation

     Number of k-points >= 100: set verbosity='high' to print the bands.

     highest occupied level (ev):     6.6923

!    total energy              =    -318.48936782 Ry
     Harris-Foulkes estimate   =    -318.48936782 Ry
     estimated scf accuracy    <          2.6E-09 Ry

     The total energy is the sum of the following terms:

     one-electron contribution =    -164.49003137 Ry
     hartree contribution      =      98.47178008 Ry
     xc contribution           =     -85.93918961 Ry
     ewald contribution        =    -166.53192692 Ry

     convergence has been achieved in   7 iterations


     Computing stress (Cartesian axis) and pressure

          total   stress  (Ry/bohr**3)                   (kbar)     P=  -26.24
  -0.00017839   0.00000000   0.00000000        -26.24      0.00      0.00
   0.00000000  -0.00017839  -0.00000000          0.00    -26.24     -0.00
   0.00000000  -0.00000000  -0.00017839          0.00     -0.00    -26.24


     Writing output data file sn.a.12.68.12.save

     init_run     :      3.79s CPU      3.87s WALL (       1 calls)
     electrons    :     71.50s CPU     73.12s WALL (       1 calls)
     stress       :      1.86s CPU      1.89s WALL (       1 calls)

     Called by init_run:
     wfcinit      :      3.28s CPU      3.35s WALL (       1 calls)
     potinit      :      0.06s CPU      0.06s WALL (       1 calls)

     Called by electrons:
     c_bands      :     60.87s CPU     62.15s WALL (       7 calls)
     sum_band     :      9.76s CPU     10.04s WALL (       7 calls)
     v_of_rho     :      0.36s CPU      0.37s WALL (       8 calls)
     newd         :      0.55s CPU      0.61s WALL (       8 calls)
     mix_rho      :      0.03s CPU      0.03s WALL (       7 calls)

     Called by c_bands:
     init_us_2    :      1.29s CPU      1.31s WALL (    2912 calls)
     cegterg      :     58.59s CPU     59.84s WALL (    1274 calls)

     Called by sum_band:
     sum_band:bec :      0.01s CPU      0.01s WALL (    1274 calls)
     addusdens    :      0.57s CPU      0.66s WALL (       7 calls)

     Called by *egterg:
     h_psi        :     53.48s CPU     54.74s WALL (    5207 calls)
     s_psi        :      0.81s CPU      0.82s WALL (    5207 calls)
     g_psi        :      0.24s CPU      0.24s WALL (    3751 calls)
     cdiaghg      :      2.22s CPU      2.22s WALL (    5025 calls)

     Called by h_psi:
     h_psi:pot    :     53.07s CPU     54.33s WALL (    5207 calls)
     h_psi:calbec :      1.60s CPU      1.63s WALL (    5207 calls)
     vloc_psi     :     50.38s CPU     51.58s WALL (    5207 calls)
     add_vuspsi   :      1.08s CPU      1.10s WALL (    5207 calls)

     General routines
     calbec       :      2.04s CPU      2.08s WALL (    6663 calls)
     fft          :      0.19s CPU      0.20s WALL (     138 calls)
     ffts         :      0.01s CPU      0.01s WALL (      15 calls)
     fftw         :     48.84s CPU     49.99s WALL (  138204 calls)
     interpolate  :      0.04s CPU      0.04s WALL (      15 calls)
     davcio       :      0.00s CPU      0.02s WALL (     182 calls)

     Parallel routines
     fft_scatter  :      6.47s CPU      6.53s WALL (  138357 calls)

     PWSCF        :  1m17.40s CPU     1m19.17s WALL


   This run was terminated on:   1:39: 5  23Nov2017            

=------------------------------------------------------------------------------=
   JOB DONE.
=------------------------------------------------------------------------------=
