
     Program PWSCF v.6.1 (svn rev. 13369) starts on 23Nov2017 at  1:43:52 

     This program is part of the open-source Quantum ESPRESSO suite
     for quantum simulation of materials; please cite
         "P. Giannozzi et al., J. Phys.:Condens. Matter 21 395502 (2009);
          URL http://www.quantum-espresso.org", 
     in publications or presentations arising from this work. More details at
     http://www.quantum-espresso.org/quote

     Parallel version (MPI), running on     4 processors
     R & G space division:  proc/nbgrp/npool/nimage =       4
     Waiting for input...
     Reading input from standard input
     Message from routine read_cards :
     DEPRECATED: no units specified in ATOMIC_POSITIONS card
     Message from routine read_cards :
     ATOMIC_POSITIONS: units set to alat

     Current dimensions of program PWSCF are:
     Max number of different atomic species (ntypx) = 10
     Max number of k-points (npk) =  40000
     Max angular momentum in pseudopotentials (lmaxx) =  3

     Subspace diagonalization in iterative solution of the eigenvalue problem:
     a serial algorithm will be used


     Parallelization info
     --------------------
     sticks:   dense  smooth     PW     G-vecs:    dense   smooth      PW
     Min         555     277     87                17259     6076    1027
     Max         556     278     88                17263     6078    1028
     Sum        2221    1111    349                69041    24309    4111



     bravais-lattice index     =            2
     lattice parameter (alat)  =      12.6800  a.u.
     unit-cell volume          =     509.6802 (a.u.)^3
     number of atoms/cell      =            2
     number of atomic types    =            1
     number of electrons       =        28.00
     number of Kohn-Sham states=           14
     kinetic-energy cutoff     =      50.0000  Ry
     charge density cutoff     =     400.0000  Ry
     convergence threshold     =      1.0E-08
     mixing beta               =       0.7000
     number of iterations used =            8  plain     mixing
     Exchange-correlation      =  SLA  PW   PBX  PBC ( 1  4  3  4 0 0)

     celldm(1)=  12.680000  celldm(2)=   0.000000  celldm(3)=   0.000000
     celldm(4)=   0.000000  celldm(5)=   0.000000  celldm(6)=   0.000000

     crystal axes: (cart. coord. in units of alat)
               a(1) = (  -0.500000   0.000000   0.500000 )  
               a(2) = (   0.000000   0.500000   0.500000 )  
               a(3) = (  -0.500000   0.500000   0.000000 )  

     reciprocal axes: (cart. coord. in units 2 pi/alat)
               b(1) = ( -1.000000 -1.000000  1.000000 )  
               b(2) = (  1.000000  1.000000  1.000000 )  
               b(3) = ( -1.000000  1.000000 -1.000000 )  


     PseudoPot. # 1 for Sn read from file:
     /home/s1333534/quantum_espresso/qe-6.1/pseudo/sn_pbe_v1.4.uspp.F.UPF
     MD5 check sum: 469debedee59599fedebd795477fea03
     Pseudo is Ultrasoft + core correction, Zval = 14.0
     Generated by new atomic code, or converted to UPF format
     Using radial grid of  891 points,  6 beta functions with: 
                l(1) =   0
                l(2) =   0
                l(3) =   1
                l(4) =   1
                l(5) =   2
                l(6) =   2
     Q(r) pseudized with  8 coefficients,  rinner =    1.350   1.350   1.350
                                                       1.350   1.350

     atomic species   valence    mass     pseudopotential
        Sn            14.00   118.71000     Sn( 1.00)

     48 Sym. Ops., with inversion, found (24 have fractional translation)



   Cartesian axes

     site n.     atom                  positions (alat units)
         1           Sn  tau(   1) = (   0.0000000   0.0000000   0.0000000  )
         2           Sn  tau(   2) = (   0.2500000   0.2500000   0.2500000  )

     number of k points=   570

     Number of k-points >= 100: set verbosity='high' to print them.

     Dense  grid:    69041 G-vectors     FFT dimensions: (  60,  60,  60)

     Smooth grid:    24309 G-vectors     FFT dimensions: (  45,  45,  45)

     Estimated max dynamical RAM per process >     105.06MB

     Estimated total allocated dynamical RAM >     420.24MB

     Initial potential from superposition of free atoms

     starting charge   25.99991, renormalised to   28.00000
     Starting wfc are   18 randomized atomic wfcs

     total cpu time spent up to now is       11.3 secs

     per-process dynamical memory:   114.3 Mb

     Self-consistent Calculation

     iteration #  1     ecut=    50.00 Ry     beta=0.70
     Davidson diagonalization with overlap
     ethr =  1.00E-02,  avg # of iterations =  2.5

     total cpu time spent up to now is       42.0 secs

     total energy              =    -317.48153527 Ry
     Harris-Foulkes estimate   =    -319.55323426 Ry
     estimated scf accuracy    <       2.52383953 Ry

     iteration #  2     ecut=    50.00 Ry     beta=0.70
     Davidson diagonalization with overlap
     ethr =  9.01E-03,  avg # of iterations =  3.0

     total cpu time spent up to now is       75.9 secs

     total energy              =    -318.39307531 Ry
     Harris-Foulkes estimate   =    -318.71192808 Ry
     estimated scf accuracy    <       0.47425485 Ry

     iteration #  3     ecut=    50.00 Ry     beta=0.70
     Davidson diagonalization with overlap
     ethr =  1.69E-03,  avg # of iterations =  2.0

     total cpu time spent up to now is      105.8 secs

     total energy              =    -318.48843565 Ry
     Harris-Foulkes estimate   =    -318.49000180 Ry
     estimated scf accuracy    <       0.00287307 Ry

     iteration #  4     ecut=    50.00 Ry     beta=0.70
     Davidson diagonalization with overlap
     ethr =  1.03E-05,  avg # of iterations =  2.9

     total cpu time spent up to now is      137.4 secs

     total energy              =    -318.48931858 Ry
     Harris-Foulkes estimate   =    -318.48943416 Ry
     estimated scf accuracy    <       0.00017105 Ry

     iteration #  5     ecut=    50.00 Ry     beta=0.70
     Davidson diagonalization with overlap
     ethr =  6.11E-07,  avg # of iterations =  3.0

     total cpu time spent up to now is      169.7 secs

     total energy              =    -318.48937147 Ry
     Harris-Foulkes estimate   =    -318.48937218 Ry
     estimated scf accuracy    <       0.00000146 Ry

     iteration #  6     ecut=    50.00 Ry     beta=0.70
     Davidson diagonalization with overlap
     ethr =  5.23E-09,  avg # of iterations =  4.0

     total cpu time spent up to now is      204.2 secs

     total energy              =    -318.48937225 Ry
     Harris-Foulkes estimate   =    -318.48937229 Ry
     estimated scf accuracy    <       0.00000007 Ry

     iteration #  7     ecut=    50.00 Ry     beta=0.70
     Davidson diagonalization with overlap
     ethr =  2.45E-10,  avg # of iterations =  3.1

     total cpu time spent up to now is      237.6 secs

     End of self-consistent calculation

     Number of k-points >= 100: set verbosity='high' to print the bands.

     highest occupied level (ev):     6.7100

!    total energy              =    -318.48937228 Ry
     Harris-Foulkes estimate   =    -318.48937228 Ry
     estimated scf accuracy    <          2.6E-09 Ry

     The total energy is the sum of the following terms:

     one-electron contribution =    -164.48999438 Ry
     hartree contribution      =      98.47173426 Ry
     xc contribution           =     -85.93918523 Ry
     ewald contribution        =    -166.53192692 Ry

     convergence has been achieved in   7 iterations


     Computing stress (Cartesian axis) and pressure

          total   stress  (Ry/bohr**3)                   (kbar)     P=  -26.23
  -0.00017828  -0.00000000   0.00000000        -26.23     -0.00      0.00
  -0.00000000  -0.00017828   0.00000000         -0.00    -26.23      0.00
   0.00000000  -0.00000000  -0.00017828          0.00     -0.00    -26.23


     Writing output data file sn.a.12.68.18.save

     init_run     :     10.93s CPU     11.19s WALL (       1 calls)
     electrons    :    220.77s CPU    226.33s WALL (       1 calls)
     stress       :      4.56s CPU      4.60s WALL (       1 calls)

     Called by init_run:
     wfcinit      :     10.40s CPU     10.64s WALL (       1 calls)
     potinit      :      0.06s CPU      0.06s WALL (       1 calls)

     Called by electrons:
     c_bands      :    191.08s CPU    195.73s WALL (       7 calls)
     sum_band     :     28.80s CPU     29.59s WALL (       7 calls)
     v_of_rho     :      0.38s CPU      0.39s WALL (       8 calls)
     newd         :      0.56s CPU      0.66s WALL (       8 calls)
     mix_rho      :      0.03s CPU      0.03s WALL (       7 calls)

     Called by c_bands:
     init_us_2    :      3.97s CPU      4.05s WALL (    9120 calls)
     cegterg      :    183.93s CPU    188.51s WALL (    3990 calls)

     Called by sum_band:
     sum_band:bec :      0.03s CPU      0.04s WALL (    3990 calls)
     addusdens    :      0.56s CPU      0.66s WALL (       7 calls)

     Called by *egterg:
     h_psi        :    168.18s CPU    172.68s WALL (   16266 calls)
     s_psi        :      2.54s CPU      2.58s WALL (   16266 calls)
     g_psi        :      0.75s CPU      0.75s WALL (   11706 calls)
     cdiaghg      :      6.85s CPU      6.88s WALL (   15696 calls)

     Called by h_psi:
     h_psi:pot    :    166.74s CPU    171.21s WALL (   16266 calls)
     h_psi:calbec :      4.77s CPU      4.88s WALL (   16266 calls)
     vloc_psi     :    158.17s CPU    162.41s WALL (   16266 calls)
     add_vuspsi   :      3.79s CPU      3.86s WALL (   16266 calls)

     General routines
     calbec       :      6.08s CPU      6.22s WALL (   20826 calls)
     fft          :      0.21s CPU      0.22s WALL (     138 calls)
     ffts         :      0.01s CPU      0.01s WALL (      15 calls)
     fftw         :    152.71s CPU    156.76s WALL (  432742 calls)
     interpolate  :      0.04s CPU      0.04s WALL (      15 calls)
     davcio       :      0.01s CPU      0.07s WALL (     570 calls)

     Parallel routines
     fft_scatter  :     19.47s CPU     19.99s WALL (  432895 calls)

     PWSCF        :  3m56.88s CPU     4m 2.89s WALL


   This run was terminated on:   1:47:55  23Nov2017            

=------------------------------------------------------------------------------=
   JOB DONE.
=------------------------------------------------------------------------------=
