
     Program PWSCF v.6.1 (svn rev. 13369) starts on 11Nov2017 at 15:32: 1 

     This program is part of the open-source Quantum ESPRESSO suite
     for quantum simulation of materials; please cite
         "P. Giannozzi et al., J. Phys.:Condens. Matter 21 395502 (2009);
          URL http://www.quantum-espresso.org", 
     in publications or presentations arising from this work. More details at
     http://www.quantum-espresso.org/quote

     Parallel version (MPI), running on     4 processors
     R & G space division:  proc/nbgrp/npool/nimage =       4
     Waiting for input...
     Reading input from standard input
     Message from routine read_cards :
     DEPRECATED: no units specified in ATOMIC_POSITIONS card
     Message from routine read_cards :
     ATOMIC_POSITIONS: units set to alat

     Current dimensions of program PWSCF are:
     Max number of different atomic species (ntypx) = 10
     Max number of k-points (npk) =  40000
     Max angular momentum in pseudopotentials (lmaxx) =  3

     Subspace diagonalization in iterative solution of the eigenvalue problem:
     a serial algorithm will be used


     Parallelization info
     --------------------
     sticks:   dense  smooth     PW     G-vecs:    dense   smooth      PW
     Min         506     253     78                14961     5296     911
     Max         508     254     79                14962     5298     913
     Sum        2029    1015    313                59847    21187    3647



     bravais-lattice index     =            2
     lattice parameter (alat)  =      12.1000  a.u.
     unit-cell volume          =     442.8902 (a.u.)^3
     number of atoms/cell      =            2
     number of atomic types    =            1
     number of electrons       =        28.00
     number of Kohn-Sham states=           14
     kinetic-energy cutoff     =      50.0000  Ry
     charge density cutoff     =     400.0000  Ry
     convergence threshold     =      1.0E-08
     mixing beta               =       0.7000
     number of iterations used =            8  plain     mixing
     Exchange-correlation      =  SLA  PW   PBX  PBC ( 1  4  3  4 0 0)

     celldm(1)=  12.100000  celldm(2)=   0.000000  celldm(3)=   0.000000
     celldm(4)=   0.000000  celldm(5)=   0.000000  celldm(6)=   0.000000

     crystal axes: (cart. coord. in units of alat)
               a(1) = (  -0.500000   0.000000   0.500000 )  
               a(2) = (   0.000000   0.500000   0.500000 )  
               a(3) = (  -0.500000   0.500000   0.000000 )  

     reciprocal axes: (cart. coord. in units 2 pi/alat)
               b(1) = ( -1.000000 -1.000000  1.000000 )  
               b(2) = (  1.000000  1.000000  1.000000 )  
               b(3) = ( -1.000000  1.000000 -1.000000 )  


     PseudoPot. # 1 for Sn read from file:
     /home/s1333534/quantum_espresso/qe-6.1/pseudo/sn_pbe_v1.4.uspp.F.UPF
     MD5 check sum: 469debedee59599fedebd795477fea03
     Pseudo is Ultrasoft + core correction, Zval = 14.0
     Generated by new atomic code, or converted to UPF format
     Using radial grid of  891 points,  6 beta functions with: 
                l(1) =   0
                l(2) =   0
                l(3) =   1
                l(4) =   1
                l(5) =   2
                l(6) =   2
     Q(r) pseudized with  8 coefficients,  rinner =    1.350   1.350   1.350
                                                       1.350   1.350

     atomic species   valence    mass     pseudopotential
        Sn            14.00   118.71000     Sn( 1.00)

     48 Sym. Ops., with inversion, found (24 have fractional translation)



   Cartesian axes

     site n.     atom                  positions (alat units)
         1           Sn  tau(   1) = (   0.0000000   0.0000000   0.0000000  )
         2           Sn  tau(   2) = (   0.2500000   0.2500000   0.2500000  )

     number of k points=    60
                       cart. coord. in units 2pi/alat
        k(    1) = (  -0.0625000   0.0625000   0.0625000), wk =   0.0078125
        k(    2) = (  -0.1875000   0.1875000  -0.0625000), wk =   0.0234375
        k(    3) = (  -0.3125000   0.3125000  -0.1875000), wk =   0.0234375
        k(    4) = (  -0.4375000   0.4375000  -0.3125000), wk =   0.0234375
        k(    5) = (   0.4375000  -0.4375000   0.5625000), wk =   0.0234375
        k(    6) = (   0.3125000  -0.3125000   0.4375000), wk =   0.0234375
        k(    7) = (   0.1875000  -0.1875000   0.3125000), wk =   0.0234375
        k(    8) = (   0.0625000  -0.0625000   0.1875000), wk =   0.0234375
        k(    9) = (  -0.0625000   0.3125000   0.0625000), wk =   0.0234375
        k(   10) = (  -0.1875000   0.4375000  -0.0625000), wk =   0.0468750
        k(   11) = (  -0.3125000   0.5625000  -0.1875000), wk =   0.0468750
        k(   12) = (   0.5625000  -0.3125000   0.6875000), wk =   0.0468750
        k(   13) = (   0.4375000  -0.1875000   0.5625000), wk =   0.0468750
        k(   14) = (   0.3125000  -0.0625000   0.4375000), wk =   0.0468750
        k(   15) = (   0.1875000   0.0625000   0.3125000), wk =   0.0468750
        k(   16) = (  -0.0625000   0.5625000   0.0625000), wk =   0.0234375
        k(   17) = (  -0.1875000   0.6875000  -0.0625000), wk =   0.0468750
        k(   18) = (   0.6875000  -0.1875000   0.8125000), wk =   0.0468750
        k(   19) = (   0.5625000  -0.0625000   0.6875000), wk =   0.0468750
        k(   20) = (   0.4375000   0.0625000   0.5625000), wk =   0.0468750
        k(   21) = (   0.3125000   0.1875000   0.4375000), wk =   0.0468750
        k(   22) = (  -0.0625000   0.8125000   0.0625000), wk =   0.0234375
        k(   23) = (   0.8125000  -0.0625000   0.9375000), wk =   0.0468750
        k(   24) = (   0.6875000   0.0625000   0.8125000), wk =   0.0468750
        k(   25) = (   0.5625000   0.1875000   0.6875000), wk =   0.0468750
        k(   26) = (   0.4375000   0.3125000   0.5625000), wk =   0.0468750
        k(   27) = (  -0.0625000  -0.9375000   0.0625000), wk =   0.0234375
        k(   28) = (  -0.1875000  -0.8125000  -0.0625000), wk =   0.0468750
        k(   29) = (  -0.3125000  -0.6875000  -0.1875000), wk =   0.0468750
        k(   30) = (  -0.0625000  -0.6875000   0.0625000), wk =   0.0234375
        k(   31) = (  -0.1875000  -0.5625000  -0.0625000), wk =   0.0468750
        k(   32) = (  -0.0625000  -0.4375000   0.0625000), wk =   0.0234375
        k(   33) = (  -0.1875000   0.1875000   0.1875000), wk =   0.0078125
        k(   34) = (  -0.3125000   0.3125000   0.0625000), wk =   0.0234375
        k(   35) = (  -0.4375000   0.4375000  -0.0625000), wk =   0.0234375
        k(   36) = (   0.4375000  -0.4375000   0.8125000), wk =   0.0234375
        k(   37) = (   0.3125000  -0.3125000   0.6875000), wk =   0.0234375
        k(   38) = (   0.1875000  -0.1875000   0.5625000), wk =   0.0234375
        k(   39) = (  -0.1875000   0.4375000   0.1875000), wk =   0.0234375
        k(   40) = (  -0.3125000   0.5625000   0.0625000), wk =   0.0468750
        k(   41) = (   0.5625000  -0.3125000   0.9375000), wk =   0.0468750
        k(   42) = (   0.4375000  -0.1875000   0.8125000), wk =   0.0468750
        k(   43) = (   0.3125000  -0.0625000   0.6875000), wk =   0.0468750
        k(   44) = (  -0.1875000   0.6875000   0.1875000), wk =   0.0234375
        k(   45) = (   0.6875000  -0.1875000   1.0625000), wk =   0.0468750
        k(   46) = (   0.5625000  -0.0625000   0.9375000), wk =   0.0468750
        k(   47) = (   0.4375000   0.0625000   0.8125000), wk =   0.0468750
        k(   48) = (  -0.1875000  -1.0625000   0.1875000), wk =   0.0234375
        k(   49) = (  -0.3125000  -0.9375000   0.0625000), wk =   0.0468750
        k(   50) = (  -0.1875000  -0.8125000   0.1875000), wk =   0.0234375
        k(   51) = (  -0.3125000   0.3125000   0.3125000), wk =   0.0078125
        k(   52) = (  -0.4375000   0.4375000   0.1875000), wk =   0.0234375
        k(   53) = (   0.4375000  -0.4375000   1.0625000), wk =   0.0234375
        k(   54) = (   0.3125000  -0.3125000   0.9375000), wk =   0.0234375
        k(   55) = (  -0.3125000   0.5625000   0.3125000), wk =   0.0234375
        k(   56) = (   0.5625000  -0.3125000   1.1875000), wk =   0.0468750
        k(   57) = (   0.4375000  -0.1875000   1.0625000), wk =   0.0468750
        k(   58) = (  -0.3125000  -1.1875000   0.3125000), wk =   0.0234375
        k(   59) = (  -0.4375000   0.4375000   0.4375000), wk =   0.0078125
        k(   60) = (   0.4375000  -0.4375000   1.3125000), wk =   0.0234375

     Dense  grid:    59847 G-vectors     FFT dimensions: (  60,  60,  60)

     Smooth grid:    21187 G-vectors     FFT dimensions: (  40,  40,  40)

     Estimated max dynamical RAM per process >      19.84MB

     Estimated total allocated dynamical RAM >      79.35MB

     Initial potential from superposition of free atoms

     starting charge   25.99991, renormalised to   28.00000
     Starting wfc are   18 randomized atomic wfcs

     total cpu time spent up to now is        1.3 secs

     per-process dynamical memory:    24.2 Mb

     Self-consistent Calculation

     iteration #  1     ecut=    50.00 Ry     beta=0.70
     Davidson diagonalization with overlap
     ethr =  1.00E-02,  avg # of iterations =  2.9

     total cpu time spent up to now is        3.7 secs

     total energy              =    -317.49114296 Ry
     Harris-Foulkes estimate   =    -319.51858704 Ry
     estimated scf accuracy    <       2.47145836 Ry

     iteration #  2     ecut=    50.00 Ry     beta=0.70
     Davidson diagonalization with overlap
     ethr =  8.83E-03,  avg # of iterations =  3.0

     total cpu time spent up to now is        6.3 secs

     total energy              =    -318.38617235 Ry
     Harris-Foulkes estimate   =    -318.70134692 Ry
     estimated scf accuracy    <       0.47118524 Ry

     iteration #  3     ecut=    50.00 Ry     beta=0.70
     Davidson diagonalization with overlap
     ethr =  1.68E-03,  avg # of iterations =  2.0

     total cpu time spent up to now is        8.5 secs

     total energy              =    -318.48017213 Ry
     Harris-Foulkes estimate   =    -318.48174371 Ry
     estimated scf accuracy    <       0.00288055 Ry

     iteration #  4     ecut=    50.00 Ry     beta=0.70
     Davidson diagonalization with overlap
     ethr =  1.03E-05,  avg # of iterations =  3.1

     total cpu time spent up to now is       11.1 secs

     total energy              =    -318.48107469 Ry
     Harris-Foulkes estimate   =    -318.48119332 Ry
     estimated scf accuracy    <       0.00017702 Ry

     iteration #  5     ecut=    50.00 Ry     beta=0.70
     Davidson diagonalization with overlap
     ethr =  6.32E-07,  avg # of iterations =  3.0

     total cpu time spent up to now is       13.6 secs

     total energy              =    -318.48112798 Ry
     Harris-Foulkes estimate   =    -318.48112848 Ry
     estimated scf accuracy    <       0.00000122 Ry

     iteration #  6     ecut=    50.00 Ry     beta=0.70
     Davidson diagonalization with overlap
     ethr =  4.36E-09,  avg # of iterations =  3.9

     total cpu time spent up to now is       16.3 secs

     total energy              =    -318.48112870 Ry
     Harris-Foulkes estimate   =    -318.48112877 Ry
     estimated scf accuracy    <       0.00000010 Ry

     iteration #  7     ecut=    50.00 Ry     beta=0.70
     Davidson diagonalization with overlap
     ethr =  3.65E-10,  avg # of iterations =  2.9

     total cpu time spent up to now is       18.9 secs

     End of self-consistent calculation

          k =-0.0625 0.0625 0.0625 (  2688 PWs)   bands (ev):

   -13.4179 -13.4179 -13.4130 -13.3447 -13.3447 -13.0157 -13.0157 -13.0078
   -12.9845 -12.9845  -2.4699   7.2720   8.3707   8.3707

          k =-0.1875 0.1875-0.0625 (  2664 PWs)   bands (ev):

   -13.4343 -13.4266 -13.4086 -13.3292 -13.3195 -13.0461 -13.0342 -13.0007
   -12.9795 -12.9604  -2.2610   5.8186   7.5689   8.2153

          k =-0.3125 0.3125-0.1875 (  2644 PWs)   bands (ev):

   -13.4491 -13.4441 -13.3940 -13.3047 -13.2904 -13.0695 -13.0538 -13.0224
   -12.9564 -12.9442  -1.7613   3.9737   7.0355   7.7246

          k =-0.4375 0.4375-0.3125 (  2636 PWs)   bands (ev):

   -13.4552 -13.4552 -13.3804 -13.2872 -13.2764 -13.0776 -13.0647 -13.0444
   -12.9415 -12.9383  -1.0891   2.4637   6.7780   7.3118

          k = 0.4375-0.4375 0.5625 (  2636 PWs)   bands (ev):

   -13.4595 -13.4542 -13.3769 -13.2788 -13.2777 -13.0755 -13.0716 -13.0484
   -12.9411 -12.9350  -0.7817   1.9411   6.7900   7.1102

          k = 0.3125-0.3125 0.4375 (  2647 PWs)   bands (ev):

   -13.4569 -13.4487 -13.3864 -13.2912 -13.2789 -13.0824 -13.0590 -13.0345
   -12.9488 -12.9375  -1.3137   2.9004   7.0524   7.1617

          k = 0.1875-0.1875 0.3125 (  2654 PWs)   bands (ev):

   -13.4451 -13.4375 -13.4015 -13.3128 -13.2972 -13.0713 -13.0393 -13.0151
   -12.9633 -12.9496  -1.9561   4.5745   7.4653   7.5162

          k = 0.0625-0.0625 0.1875 (  2686 PWs)   bands (ev):

   -13.4263 -13.4218 -13.4141 -13.3387 -13.3270 -13.0453 -13.0135 -13.0025
   -12.9862 -12.9688  -2.3648   6.4537   7.9559   8.0173

          k =-0.0625 0.3125 0.0625 (  2654 PWs)   bands (ev):

   -13.4348 -13.4291 -13.4167 -13.3261 -13.2974 -13.0827 -13.0180 -12.9909
   -12.9805 -12.9594  -2.1554   5.5374   7.4245   7.4264

          k =-0.1875 0.4375-0.0625 (  2647 PWs)   bands (ev):

   -13.4521 -13.4442 -13.4000 -13.3037 -13.2650 -13.1168 -13.0414 -13.0029
   -12.9601 -12.9425  -1.7475   4.2557   6.5278   7.1756

          k =-0.3125 0.5625-0.1875 (  2643 PWs)   bands (ev):

   -13.4708 -13.4556 -13.3706 -13.2794 -13.2462 -13.1304 -13.0667 -13.0378
   -12.9406 -12.9232  -1.1045   2.8040   5.9914   6.8220

          k = 0.5625-0.3125 0.6875 (  2640 PWs)   bands (ev):

   -13.4793 -13.4618 -13.3499 -13.2614 -13.2509 -13.1162 -13.0909 -13.0623
   -12.9311 -12.9139  -0.5658   1.9055   5.7112   6.7416

          k = 0.4375-0.1875 0.5625 (  2641 PWs)   bands (ev):

   -13.4742 -13.4623 -13.3540 -13.2769 -13.2485 -13.1144 -13.0730 -13.0653
   -12.9302 -12.9206  -0.8842   2.4105   5.6961   6.9848

          k = 0.3125-0.0625 0.4375 (  2650 PWs)   bands (ev):

   -13.4585 -13.4545 -13.3795 -13.2987 -13.2644 -13.1059 -13.0560 -13.0276
   -12.9475 -12.9341  -1.5582   3.7459   6.0602   7.4394

          k = 0.1875 0.0625 0.3125 (  2649 PWs)   bands (ev):

   -13.4431 -13.4345 -13.4047 -13.3193 -13.2963 -13.0771 -13.0347 -13.0001
   -12.9733 -12.9504  -2.0545   5.0492   7.0375   7.7846

          k =-0.0625 0.5625 0.0625 (  2650 PWs)   bands (ev):

   -13.4535 -13.4492 -13.4076 -13.2822 -13.2233 -13.1696 -13.0573 -12.9860
   -12.9513 -12.9449  -1.4316   3.6892   6.3927   6.4932

          k =-0.1875 0.6875-0.0625 (  2649 PWs)   bands (ev):

   -13.4704 -13.4625 -13.3750 -13.2535 -13.2039 -13.1897 -13.0869 -13.0224
   -12.9319 -12.9233  -0.8481   2.6566   5.7436   6.1932

          k = 0.6875-0.1875 0.8125 (  2644 PWs)   bands (ev):

   -13.4898 -13.4691 -13.3342 -13.2263 -13.2061 -13.1825 -13.1194 -13.0656
   -12.9216 -12.9011  -0.1839   1.7319   5.0839   6.1583

          k = 0.5625-0.0625 0.6875 (  2637 PWs)   bands (ev):

   -13.4931 -13.4712 -13.3221 -13.2339 -13.2073 -13.1608 -13.1317 -13.0785
   -12.9183 -12.8982  -0.2522   1.8192   4.8322   6.4517

          k = 0.4375 0.0625 0.5625 (  2647 PWs)   bands (ev):

   -13.4780 -13.4666 -13.3447 -13.2761 -13.2341 -13.1304 -13.0777 -13.0708
   -12.9242 -12.9176  -0.9224   2.6558   5.2781   6.9562

          k = 0.3125 0.1875 0.4375 (  2642 PWs)   bands (ev):

   -13.4588 -13.4497 -13.3838 -13.2959 -13.2715 -13.0959 -13.0553 -13.0296
   -12.9495 -12.9350  -1.4747   3.3749   6.5234   7.3333

          k =-0.0625 0.8125 0.0625 (  2646 PWs)   bands (ev):

   -13.4690 -13.4657 -13.3679 -13.2592 -13.2206 -13.1402 -13.1173 -13.0290
   -12.9251 -12.9217  -0.3262   1.9252   5.7827   5.9313

          k = 0.8125-0.0625 0.9375 (  2641 PWs)   bands (ev):

   -13.4806 -13.4728 -13.3243 -13.2831 -13.1874 -13.1521 -13.1144 -13.0740
   -12.9159 -12.9084   0.3797   1.1141   5.3811   5.7565

          k = 0.6875 0.0625 0.8125 (  2635 PWs)   bands (ev):

   -13.4939 -13.4726 -13.3176 -13.2262 -13.1958 -13.1658 -13.1491 -13.0801
   -12.9162 -12.8956   0.2486   1.2855   4.8644   6.0304

          k = 0.5625 0.1875 0.6875 (  2638 PWs)   bands (ev):

   -13.4884 -13.4676 -13.3329 -13.2454 -13.2287 -13.1412 -13.1130 -13.0719
   -12.9233 -12.9035  -0.3608   1.8205   5.1665   6.5480

          k = 0.4375 0.3125 0.5625 (  2641 PWs)   bands (ev):

   -13.4673 -13.4566 -13.3672 -13.2780 -13.2662 -13.0929 -13.0721 -13.0542
   -12.9378 -12.9272  -0.8261   2.1218   6.3013   7.0332

          k =-0.0625-0.9375 0.0625 (  2646 PWs)   bands (ev):

   -13.4728 -13.4695 -13.3372 -13.2999 -13.1864 -13.1515 -13.0995 -13.0615
   -12.9193 -12.9160   0.3539   1.1098   5.6586   5.8161

          k =-0.1875-0.8125-0.0625 (  2640 PWs)   bands (ev):

   -13.4770 -13.4692 -13.3522 -13.2453 -13.2214 -13.1512 -13.1182 -13.0453
   -12.9214 -12.9137  -0.2689   1.8692   5.5040   5.9019

          k =-0.3125-0.6875-0.1875 (  2649 PWs)   bands (ev):

   -13.4818 -13.4628 -13.3538 -13.2553 -13.2189 -13.1651 -13.0901 -13.0495
   -12.9305 -12.9110  -0.6649   2.2578   5.4845   6.4198

          k =-0.0625-0.6875 0.0625 (  2643 PWs)   bands (ev):

   -13.4623 -13.4584 -13.3915 -13.2531 -13.2149 -13.1819 -13.0856 -13.0030
   -12.9362 -12.9323  -0.9240   2.7899   6.0290   6.1591

          k =-0.1875-0.5625-0.0625 (  2643 PWs)   bands (ev):

   -13.4614 -13.4539 -13.3906 -13.2814 -13.2289 -13.1595 -13.0602 -13.0083
   -12.9452 -12.9338  -1.3436   3.4559   6.0893   6.6251

          k =-0.0625-0.4375 0.0625 (  2648 PWs)   bands (ev):

   -13.4438 -13.4388 -13.4159 -13.3069 -13.2625 -13.1247 -13.0341 -12.9820
   -12.9669 -12.9541  -1.8434   4.6095   6.8645   6.9227

          k =-0.1875 0.1875 0.1875 (  2659 PWs)   bands (ev):

   -13.4348 -13.4348 -13.4049 -13.3182 -13.3182 -13.0420 -13.0420 -13.0164
   -12.9627 -12.9627  -2.1589   5.2598   7.9046   7.9046

          k =-0.3125 0.3125 0.0625 (  2641 PWs)   bands (ev):

   -13.4506 -13.4438 -13.3916 -13.3099 -13.2863 -13.0764 -13.0553 -13.0118
   -12.9621 -12.9414  -1.8544   4.4105   6.5345   7.8793

          k =-0.4375 0.4375-0.0625 (  2642 PWs)   bands (ev):

   -13.4671 -13.4622 -13.3601 -13.2913 -13.2540 -13.1048 -13.0714 -13.0513
   -12.9319 -12.9288  -1.2803   3.1988   5.6240   7.3921

          k = 0.4375-0.4375 0.8125 (  2638 PWs)   bands (ev):

   -13.4817 -13.4646 -13.3423 -13.2645 -13.2428 -13.1093 -13.1035 -13.0703
   -12.9263 -12.9122  -0.6239   2.0719   5.4018   6.9035

          k = 0.3125-0.3125 0.6875 (  2642 PWs)   bands (ev):

   -13.4818 -13.4600 -13.3540 -13.2566 -13.2392 -13.1395 -13.0901 -13.0526
   -12.9332 -12.9109  -0.6087   2.0466   5.6184   6.6276

          k = 0.1875-0.1875 0.5625 (  2652 PWs)   bands (ev):

   -13.4676 -13.4510 -13.3848 -13.2806 -13.2371 -13.1482 -13.0626 -13.0172
   -12.9478 -12.9270  -1.2620   3.1910   6.1579   6.6332

          k =-0.1875 0.4375 0.1875 (  2652 PWs)   bands (ev):

   -13.4564 -13.4430 -13.3955 -13.3005 -13.2695 -13.1084 -13.0453 -13.0124
   -12.9585 -12.9387  -1.6554   3.8801   6.8173   7.0224

          k =-0.3125 0.5625 0.0625 (  2642 PWs)   bands (ev):

   -13.4687 -13.4623 -13.3668 -13.2801 -13.2348 -13.1441 -13.0656 -13.0404
   -12.9331 -12.9257  -1.1713   3.0820   5.6672   6.8255

          k = 0.5625-0.3125 0.9375 (  2649 PWs)   bands (ev):

   -13.4865 -13.4724 -13.3290 -13.2524 -13.2083 -13.1660 -13.1029 -13.0759
   -12.9182 -12.9063  -0.4971   2.1258   5.0516   6.3672

          k = 0.4375-0.1875 0.8125 (  2642 PWs)   bands (ev):

   -13.4914 -13.4734 -13.3204 -13.2334 -13.2035 -13.1750 -13.1220 -13.0799
   -12.9171 -12.8994  -0.1448   1.6692   5.0191   6.1156

          k = 0.3125-0.0625 0.6875 (  2646 PWs)   bands (ev):

   -13.4781 -13.4695 -13.3505 -13.2545 -13.2025 -13.1832 -13.0903 -13.0517
   -12.9231 -12.9150  -0.7019   2.4197   5.3784   6.2577

          k =-0.1875 0.6875 0.1875 (  2649 PWs)   bands (ev):

   -13.4774 -13.4595 -13.3684 -13.2538 -13.2057 -13.1853 -13.0880 -13.0310
   -12.9347 -12.9156  -0.7838   2.5020   5.6208   6.3253

          k = 0.6875-0.1875 1.0625 (  2645 PWs)   bands (ev):

   -13.4847 -13.4760 -13.3284 -13.2256 -13.2222 -13.1667 -13.1212 -13.0701
   -12.9145 -12.9060  -0.1627   1.7589   5.2030   5.8247

          k = 0.5625-0.0625 0.9375 (  2640 PWs)   bands (ev):

   -13.4919 -13.4847 -13.2842 -13.2371 -13.1959 -13.1613 -13.1479 -13.1083
   -12.9045 -12.8973   0.4475   1.1203   4.9942   5.4510

          k = 0.4375 0.0625 0.8125 (  2643 PWs)   bands (ev):

   -13.4910 -13.4792 -13.3081 -13.2254 -13.2033 -13.1777 -13.1307 -13.0893
   -12.9108 -12.8993  -0.0245   1.6067   4.9611   5.8246

          k =-0.1875-1.0625 0.1875 (  2634 PWs)   bands (ev):

   -13.4887 -13.4697 -13.3260 -13.2577 -13.1897 -13.1507 -13.1380 -13.0727
   -12.9187 -12.9005   0.3368   1.1727   5.0575   6.0057

          k =-0.3125-0.9375 0.0625 (  2635 PWs)   bands (ev):

   -13.4879 -13.4796 -13.3030 -13.2580 -13.1907 -13.1546 -13.1351 -13.0931
   -12.9094 -12.9011   0.4184   1.1185   5.1322   5.5820

          k =-0.1875-0.8125 0.1875 (  2637 PWs)   bands (ev):

   -13.4847 -13.4662 -13.3468 -13.2285 -13.2225 -13.1657 -13.1183 -13.0515
   -12.9245 -12.9058  -0.2351   1.8147   5.2474   6.1135

          k =-0.3125 0.3125 0.3125 (  2659 PWs)   bands (ev):

   -13.4477 -13.4477 -13.3941 -13.2943 -13.2943 -13.0610 -13.0610 -13.0316
   -12.9484 -12.9484  -1.5784   3.4253   7.4641   7.4641

          k =-0.4375 0.4375 0.1875 (  2643 PWs)   bands (ev):

   -13.4623 -13.4594 -13.3686 -13.2899 -13.2643 -13.0930 -13.0664 -13.0502
   -12.9361 -12.9324  -1.2130   2.8704   6.1050   7.3673

          k = 0.4375-0.4375 1.0625 (  2642 PWs)   bands (ev):

   -13.4873 -13.4681 -13.3318 -13.2593 -13.2249 -13.1281 -13.1159 -13.0743
   -12.9216 -12.9063  -0.6096   2.2277   4.9876   6.8525

          k = 0.3125-0.3125 0.9375 (  2639 PWs)   bands (ev):

   -13.4959 -13.4699 -13.3234 -13.2032 -13.2026 -13.1859 -13.1439 -13.0760
   -12.9191 -12.8945   0.0073   1.5316   4.7621   6.3656

          k =-0.3125 0.5625 0.3125 (  2645 PWs)   bands (ev):

   -13.4694 -13.4531 -13.3720 -13.2785 -13.2602 -13.1103 -13.0691 -13.0409
   -12.9432 -12.9243  -0.9817   2.4376   6.3174   6.8708

          k = 0.5625-0.3125 1.1875 (  2644 PWs)   bands (ev):

   -13.4846 -13.4675 -13.3381 -13.2561 -13.2275 -13.1450 -13.0969 -13.0694
   -12.9244 -12.9080  -0.5128   2.0079   5.3252   6.4966

          k = 0.4375-0.1875 1.0625 (  2646 PWs)   bands (ev):

   -13.4946 -13.4773 -13.3064 -13.2147 -13.1989 -13.1804 -13.1447 -13.0900
   -12.9123 -12.8954   0.1215   1.4386   4.8355   5.9194

          k =-0.3125-1.1875 0.3125 (  2640 PWs)   bands (ev):

   -13.4910 -13.4664 -13.3357 -13.2290 -13.2192 -13.1660 -13.1174 -13.0663
   -12.9243 -12.9002  -0.2455   1.7328   5.0692   6.4549

          k =-0.4375 0.4375 0.4375 (  2632 PWs)   bands (ev):

   -13.4524 -13.4524 -13.3859 -13.2829 -13.2829 -13.0682 -13.0682 -13.0411
   -12.9426 -12.9426  -0.9328   2.1291   7.2228   7.2228

          k = 0.4375-0.4375 1.3125 (  2635 PWs)   bands (ev):

   -13.4715 -13.4591 -13.3594 -13.2712 -13.2638 -13.0874 -13.0873 -13.0611
   -12.9339 -12.9230  -0.6746   1.9331   6.0604   6.9957

     highest occupied level (ev):     8.3707

!    total energy              =    -318.48112873 Ry
     Harris-Foulkes estimate   =    -318.48112873 Ry
     estimated scf accuracy    <          1.6E-09 Ry

     The total energy is the sum of the following terms:

     one-electron contribution =    -151.47597908 Ry
     hartree contribution      =      93.58491419 Ry
     xc contribution           =     -86.07561481 Ry
     ewald contribution        =    -174.51444903 Ry

     convergence has been achieved in   7 iterations

     Writing output data file sn.alpha.12.1.save

     init_run     :      1.16s CPU      1.21s WALL (       1 calls)
     electrons    :     17.05s CPU     17.67s WALL (       1 calls)

     Called by init_run:
     wfcinit      :      0.73s CPU      0.75s WALL (       1 calls)
     potinit      :      0.06s CPU      0.06s WALL (       1 calls)

     Called by electrons:
     c_bands      :     13.67s CPU     14.03s WALL (       7 calls)
     sum_band     :      2.59s CPU      2.73s WALL (       7 calls)
     v_of_rho     :      0.35s CPU      0.36s WALL (       8 calls)
     newd         :      0.48s CPU      0.55s WALL (       8 calls)
     mix_rho      :      0.03s CPU      0.03s WALL (       7 calls)

     Called by c_bands:
     init_us_2    :      0.33s CPU      0.33s WALL (     900 calls)
     cegterg      :     13.04s CPU     13.39s WALL (     420 calls)

     Called by sum_band:
     sum_band:bec :      0.00s CPU      0.00s WALL (     420 calls)
     addusdens    :      0.48s CPU      0.58s WALL (       7 calls)

     Called by *egterg:
     h_psi        :     11.34s CPU     11.69s WALL (    1722 calls)
     s_psi        :      0.21s CPU      0.21s WALL (    1722 calls)
     g_psi        :      0.07s CPU      0.07s WALL (    1242 calls)
     cdiaghg      :      0.73s CPU      0.73s WALL (    1662 calls)

     Called by h_psi:
     h_psi:pot    :     11.24s CPU     11.59s WALL (    1722 calls)
     h_psi:calbec :      0.44s CPU      0.45s WALL (    1722 calls)
     vloc_psi     :     10.53s CPU     10.86s WALL (    1722 calls)
     add_vuspsi   :      0.27s CPU      0.28s WALL (    1722 calls)

     General routines
     calbec       :      0.55s CPU      0.56s WALL (    2142 calls)
     fft          :      0.15s CPU      0.16s WALL (     124 calls)
     ffts         :      0.01s CPU      0.01s WALL (      15 calls)
     fftw         :      9.84s CPU     10.09s WALL (   45654 calls)
     interpolate  :      0.03s CPU      0.03s WALL (      15 calls)
     davcio       :      0.00s CPU      0.00s WALL (      60 calls)

     Parallel routines
     fft_scatter  :      1.66s CPU      1.68s WALL (   45793 calls)

     PWSCF        :    18.37s CPU        20.02s WALL


   This run was terminated on:  15:32:21  11Nov2017            

=------------------------------------------------------------------------------=
   JOB DONE.
=------------------------------------------------------------------------------=
