
     Program Q2R v.6.1 (svn rev. 13369) starts on 14Dec2017 at 12: 1: 4 

     This program is part of the open-source Quantum ESPRESSO suite
     for quantum simulation of materials; please cite
         "P. Giannozzi et al., J. Phys.:Condens. Matter 21 395502 (2009);
          URL http://www.quantum-espresso.org", 
     in publications or presentations arising from this work. More details at
     http://www.quantum-espresso.org/quote

     Parallel version (MPI), running on     1 processors

     reading grid info from file sn.beta.dyn0    
  reading force constants from file sn.beta.dyn1
  Dielectric Tensor not found
  nqs=            1
 q=   0.00000000  0.00000000  0.00000000
  reading force constants from file sn.beta.dyn2
  nqs=            2
 q=   0.00000000  0.00000000  0.47017404
 q=   0.00000000  0.00000000 -0.47017404
  reading force constants from file sn.beta.dyn3
  nqs=            2
 q=   0.00000000  0.00000000  0.94034808
 q=   0.00000000  0.00000000 -0.94034808
  reading force constants from file sn.beta.dyn4
  nqs=            2
 q=   0.00000000  0.00000000  1.41052212
 q=   0.00000000  0.00000000 -1.41052212
  reading force constants from file sn.beta.dyn5
  nqs=            1
 q=   0.00000000  0.00000000 -1.88069616
  reading force constants from file sn.beta.dyn6
  nqs=            8
 q=   0.00000000  0.12677228 -0.23508702
 q=   0.00000000 -0.12677228 -0.23508702
 q=  -0.12677228  0.00000000 -0.23508702
 q=   0.12677228  0.00000000 -0.23508702
 q=   0.00000000  0.12677228  0.23508702
 q=   0.00000000 -0.12677228  0.23508702
 q=   0.12677228  0.00000000  0.23508702
 q=  -0.12677228  0.00000000  0.23508702
  reading force constants from file sn.beta.dyn7
  nqs=            8
 q=   0.00000000  0.12677228  0.70526106
 q=   0.00000000 -0.12677228  0.70526106
 q=  -0.12677228  0.00000000  0.70526106
 q=   0.12677228  0.00000000  0.70526106
 q=   0.00000000  0.12677228 -0.70526106
 q=   0.00000000 -0.12677228 -0.70526106
 q=   0.12677228  0.00000000 -0.70526106
 q=  -0.12677228  0.00000000 -0.70526106
  reading force constants from file sn.beta.dyn8
  nqs=            8
 q=   0.00000000  0.12677228  1.17543510
 q=   0.00000000 -0.12677228  1.17543510
 q=  -0.12677228  0.00000000  1.17543510
 q=   0.12677228  0.00000000  1.17543510
 q=   0.00000000  0.12677228 -1.17543510
 q=   0.00000000 -0.12677228 -1.17543510
 q=   0.12677228  0.00000000 -1.17543510
 q=  -0.12677228  0.00000000 -1.17543510
  reading force constants from file sn.beta.dyn9
  nqs=            8
 q=   0.00000000  0.12677228 -2.11578318
 q=   0.00000000 -0.12677228 -2.11578318
 q=  -0.12677228  0.00000000 -2.11578318
 q=   0.00000000  0.12677228  2.11578318
 q=   0.00000000 -0.12677228  2.11578318
 q=  -0.12677228  0.00000000  2.11578318
 q=   0.12677228  0.00000000  2.11578318
 q=   0.12677228  0.00000000 -2.11578318
  reading force constants from file sn.beta.dyn10
  nqs=            8
 q=   0.00000000  0.25354455 -0.47017404
 q=   0.00000000 -0.25354455 -0.47017404
 q=  -0.25354455  0.00000000 -0.47017404
 q=   0.00000000  0.25354455  0.47017404
 q=   0.00000000 -0.25354455  0.47017404
 q=  -0.25354455  0.00000000  0.47017404
 q=   0.25354455  0.00000000  0.47017404
 q=   0.25354455  0.00000000 -0.47017404
  reading force constants from file sn.beta.dyn11
  nqs=            4
 q=   0.00000000  0.25354455  0.00000000
 q=   0.25354455  0.00000000  0.00000000
 q=   0.00000000 -0.25354455  0.00000000
 q=  -0.25354455  0.00000000  0.00000000
  reading force constants from file sn.beta.dyn12
  nqs=            8
 q=   0.00000000  0.25354455  0.94034808
 q=   0.00000000 -0.25354455  0.94034808
 q=  -0.25354455  0.00000000  0.94034808
 q=   0.00000000  0.25354455 -0.94034808
 q=   0.00000000 -0.25354455 -0.94034808
 q=  -0.25354455  0.00000000 -0.94034808
 q=   0.25354455  0.00000000 -0.94034808
 q=   0.25354455  0.00000000  0.94034808
  reading force constants from file sn.beta.dyn13
  nqs=            8
 q=   0.00000000  0.25354455 -2.35087020
 q=   0.00000000 -0.25354455 -2.35087020
 q=  -0.25354455  0.00000000 -2.35087020
 q=   0.00000000  0.25354455  2.35087020
 q=   0.00000000 -0.25354455  2.35087020
 q=  -0.25354455  0.00000000  2.35087020
 q=   0.25354455  0.00000000  2.35087020
 q=   0.25354455  0.00000000 -2.35087020
  reading force constants from file sn.beta.dyn14
  nqs=            4
 q=   0.00000000  0.25354455 -1.88069616
 q=   0.25354455  0.00000000 -1.88069616
 q=   0.00000000 -0.25354455  1.88069616
 q=  -0.25354455  0.00000000  1.88069616
  reading force constants from file sn.beta.dyn15
  nqs=            8
 q=   0.00000000  0.38031683 -0.70526106
 q=   0.00000000 -0.38031683 -0.70526106
 q=  -0.38031683  0.00000000 -0.70526106
 q=   0.00000000  0.38031683  0.70526106
 q=   0.00000000 -0.38031683  0.70526106
 q=  -0.38031683  0.00000000  0.70526106
 q=   0.38031683  0.00000000  0.70526106
 q=   0.38031683  0.00000000 -0.70526106
  reading force constants from file sn.beta.dyn16
  nqs=            8
 q=   0.00000000  0.38031683 -0.23508702
 q=   0.00000000 -0.38031683 -0.23508702
 q=  -0.38031683  0.00000000 -0.23508702
 q=   0.00000000  0.38031683  0.23508702
 q=   0.00000000 -0.38031683  0.23508702
 q=  -0.38031683  0.00000000  0.23508702
 q=   0.38031683  0.00000000  0.23508702
 q=   0.38031683  0.00000000 -0.23508702
  reading force constants from file sn.beta.dyn17
  nqs=            8
 q=   0.00000000  0.38031683 -2.58595722
 q=   0.00000000 -0.38031683 -2.58595722
 q=  -0.38031683  0.00000000 -2.58595722
 q=   0.00000000  0.38031683  2.58595722
 q=   0.00000000 -0.38031683  2.58595722
 q=  -0.38031683  0.00000000  2.58595722
 q=   0.38031683  0.00000000  2.58595722
 q=   0.38031683  0.00000000 -2.58595722
  reading force constants from file sn.beta.dyn18
  nqs=            8
 q=   0.00000000  0.38031683 -2.11578318
 q=   0.00000000 -0.38031683 -2.11578318
 q=  -0.38031683  0.00000000 -2.11578318
 q=   0.00000000  0.38031683  2.11578318
 q=   0.00000000 -0.38031683  2.11578318
 q=  -0.38031683  0.00000000  2.11578318
 q=   0.38031683  0.00000000  2.11578318
 q=   0.38031683  0.00000000 -2.11578318
  reading force constants from file sn.beta.dyn19
  nqs=            4
 q=   0.00000000 -0.50708911  0.94034808
 q=   0.00000000 -0.50708911 -0.94034808
 q=  -0.50708911  0.00000000  0.94034808
 q=  -0.50708911  0.00000000 -0.94034808
  reading force constants from file sn.beta.dyn20
  nqs=            8
 q=   0.00000000 -0.50708911  1.41052212
 q=   0.00000000  0.50708911  1.41052212
 q=   0.50708911  0.00000000  1.41052212
 q=   0.00000000 -0.50708911 -1.41052212
 q=   0.00000000  0.50708911 -1.41052212
 q=   0.50708911  0.00000000 -1.41052212
 q=  -0.50708911  0.00000000 -1.41052212
 q=  -0.50708911  0.00000000  1.41052212
  reading force constants from file sn.beta.dyn21
  nqs=            4
 q=   0.00000000 -0.50708911  1.88069616
 q=  -0.50708911  0.00000000  1.88069616
 q=   0.00000000  0.50708911 -1.88069616
 q=   0.50708911  0.00000000 -1.88069616
  reading force constants from file sn.beta.dyn22
  nqs=            8
 q=   0.12677228  0.12677228 -0.47017404
 q=  -0.12677228 -0.12677228 -0.47017404
 q=  -0.12677228  0.12677228  0.47017404
 q=   0.12677228 -0.12677228  0.47017404
 q=   0.12677228 -0.12677228 -0.47017404
 q=   0.12677228  0.12677228  0.47017404
 q=  -0.12677228  0.12677228 -0.47017404
 q=  -0.12677228 -0.12677228  0.47017404
  reading force constants from file sn.beta.dyn23
  nqs=            4
 q=   0.12677228  0.12677228  0.00000000
 q=  -0.12677228  0.12677228  0.00000000
 q=   0.12677228 -0.12677228  0.00000000
 q=  -0.12677228 -0.12677228  0.00000000
  reading force constants from file sn.beta.dyn24
  nqs=            8
 q=   0.12677228  0.12677228  0.94034808
 q=  -0.12677228 -0.12677228  0.94034808
 q=  -0.12677228  0.12677228 -0.94034808
 q=   0.12677228 -0.12677228 -0.94034808
 q=   0.12677228 -0.12677228  0.94034808
 q=   0.12677228  0.12677228 -0.94034808
 q=  -0.12677228  0.12677228  0.94034808
 q=  -0.12677228 -0.12677228 -0.94034808
  reading force constants from file sn.beta.dyn25
  nqs=            8
 q=   0.12677228  0.12677228 -2.35087020
 q=  -0.12677228 -0.12677228 -2.35087020
 q=  -0.12677228  0.12677228  2.35087020
 q=   0.12677228 -0.12677228  2.35087020
 q=   0.12677228 -0.12677228 -2.35087020
 q=   0.12677228  0.12677228  2.35087020
 q=  -0.12677228  0.12677228 -2.35087020
 q=  -0.12677228 -0.12677228  2.35087020
  reading force constants from file sn.beta.dyn26
  nqs=            4
 q=   0.12677228  0.12677228 -1.88069616
 q=  -0.12677228  0.12677228  1.88069616
 q=   0.12677228 -0.12677228  1.88069616
 q=  -0.12677228 -0.12677228 -1.88069616
  reading force constants from file sn.beta.dyn27
  nqs=           16
 q=   0.12677228  0.25354455 -0.70526106
 q=   0.25354455  0.12677228 -0.70526106
 q=  -0.12677228 -0.25354455 -0.70526106
 q=  -0.25354455 -0.12677228 -0.70526106
 q=  -0.12677228  0.25354455  0.70526106
 q=   0.12677228 -0.25354455  0.70526106
 q=  -0.25354455  0.12677228  0.70526106
 q=   0.25354455 -0.12677228  0.70526106
 q=   0.12677228 -0.25354455 -0.70526106
 q=   0.25354455 -0.12677228 -0.70526106
 q=   0.25354455  0.12677228  0.70526106
 q=  -0.12677228  0.25354455 -0.70526106
 q=  -0.25354455  0.12677228 -0.70526106
 q=   0.12677228  0.25354455  0.70526106
 q=  -0.12677228 -0.25354455  0.70526106
 q=  -0.25354455 -0.12677228  0.70526106
  reading force constants from file sn.beta.dyn28
  nqs=           16
 q=   0.12677228  0.25354455 -0.23508702
 q=   0.25354455  0.12677228 -0.23508702
 q=  -0.12677228 -0.25354455 -0.23508702
 q=  -0.25354455 -0.12677228 -0.23508702
 q=  -0.12677228  0.25354455  0.23508702
 q=   0.12677228 -0.25354455  0.23508702
 q=  -0.25354455  0.12677228  0.23508702
 q=   0.25354455 -0.12677228  0.23508702
 q=   0.12677228 -0.25354455 -0.23508702
 q=   0.25354455 -0.12677228 -0.23508702
 q=   0.25354455  0.12677228  0.23508702
 q=  -0.12677228  0.25354455 -0.23508702
 q=  -0.25354455  0.12677228 -0.23508702
 q=   0.12677228  0.25354455  0.23508702
 q=  -0.12677228 -0.25354455  0.23508702
 q=  -0.25354455 -0.12677228  0.23508702
  reading force constants from file sn.beta.dyn29
  nqs=           16
 q=   0.12677228  0.25354455 -2.58595722
 q=   0.25354455  0.12677228 -2.58595722
 q=  -0.12677228 -0.25354455 -2.58595722
 q=  -0.25354455 -0.12677228 -2.58595722
 q=  -0.12677228  0.25354455  2.58595722
 q=   0.12677228 -0.25354455  2.58595722
 q=  -0.25354455  0.12677228  2.58595722
 q=   0.25354455 -0.12677228  2.58595722
 q=   0.12677228 -0.25354455 -2.58595722
 q=   0.25354455 -0.12677228 -2.58595722
 q=   0.25354455  0.12677228  2.58595722
 q=  -0.12677228  0.25354455 -2.58595722
 q=  -0.25354455  0.12677228 -2.58595722
 q=   0.12677228  0.25354455  2.58595722
 q=  -0.12677228 -0.25354455  2.58595722
 q=  -0.25354455 -0.12677228  2.58595722
  reading force constants from file sn.beta.dyn30
  nqs=           16
 q=   0.12677228  0.25354455 -2.11578318
 q=   0.25354455  0.12677228 -2.11578318
 q=  -0.12677228 -0.25354455 -2.11578318
 q=  -0.25354455 -0.12677228 -2.11578318
 q=  -0.12677228  0.25354455  2.11578318
 q=   0.12677228 -0.25354455  2.11578318
 q=  -0.25354455  0.12677228  2.11578318
 q=   0.25354455 -0.12677228  2.11578318
 q=   0.12677228 -0.25354455 -2.11578318
 q=   0.25354455 -0.12677228 -2.11578318
 q=   0.25354455  0.12677228  2.11578318
 q=  -0.12677228  0.25354455 -2.11578318
 q=  -0.25354455  0.12677228 -2.11578318
 q=   0.12677228  0.25354455  2.11578318
 q=  -0.12677228 -0.25354455  2.11578318
 q=  -0.25354455 -0.12677228  2.11578318
  reading force constants from file sn.beta.dyn31
  nqs=           16
 q=   0.12677228  0.38031683 -0.94034808
 q=   0.38031683  0.12677228 -0.94034808
 q=  -0.12677228 -0.38031683 -0.94034808
 q=  -0.38031683 -0.12677228 -0.94034808
 q=  -0.12677228  0.38031683  0.94034808
 q=   0.12677228 -0.38031683  0.94034808
 q=  -0.38031683  0.12677228  0.94034808
 q=   0.38031683 -0.12677228  0.94034808
 q=   0.12677228 -0.38031683 -0.94034808
 q=   0.38031683 -0.12677228 -0.94034808
 q=   0.38031683  0.12677228  0.94034808
 q=  -0.12677228  0.38031683 -0.94034808
 q=  -0.38031683  0.12677228 -0.94034808
 q=   0.12677228  0.38031683  0.94034808
 q=  -0.12677228 -0.38031683  0.94034808
 q=  -0.38031683 -0.12677228  0.94034808
  reading force constants from file sn.beta.dyn32
  nqs=           16
 q=   0.12677228  0.38031683 -0.47017404
 q=   0.38031683  0.12677228 -0.47017404
 q=  -0.12677228 -0.38031683 -0.47017404
 q=  -0.38031683 -0.12677228 -0.47017404
 q=  -0.12677228  0.38031683  0.47017404
 q=   0.12677228 -0.38031683  0.47017404
 q=  -0.38031683  0.12677228  0.47017404
 q=   0.38031683 -0.12677228  0.47017404
 q=   0.12677228 -0.38031683 -0.47017404
 q=   0.38031683 -0.12677228 -0.47017404
 q=   0.38031683  0.12677228  0.47017404
 q=  -0.12677228  0.38031683 -0.47017404
 q=  -0.38031683  0.12677228 -0.47017404
 q=   0.12677228  0.38031683  0.47017404
 q=  -0.12677228 -0.38031683  0.47017404
 q=  -0.38031683 -0.12677228  0.47017404
  reading force constants from file sn.beta.dyn33
  nqs=            8
 q=   0.12677228  0.38031683  0.00000000
 q=  -0.12677228 -0.38031683 -0.00000000
 q=  -0.38031683 -0.12677228 -0.00000000
 q=  -0.12677228  0.38031683  0.00000000
 q=   0.12677228 -0.38031683  0.00000000
 q=  -0.38031683  0.12677228  0.00000000
 q=   0.38031683 -0.12677228  0.00000000
 q=   0.38031683  0.12677228  0.00000000
  reading force constants from file sn.beta.dyn34
  nqs=           16
 q=   0.12677228  0.38031683 -2.35087020
 q=   0.38031683  0.12677228 -2.35087020
 q=  -0.12677228 -0.38031683 -2.35087020
 q=  -0.38031683 -0.12677228 -2.35087020
 q=  -0.12677228  0.38031683  2.35087020
 q=   0.12677228 -0.38031683  2.35087020
 q=  -0.38031683  0.12677228  2.35087020
 q=   0.38031683 -0.12677228  2.35087020
 q=   0.12677228 -0.38031683 -2.35087020
 q=   0.38031683 -0.12677228 -2.35087020
 q=   0.38031683  0.12677228  2.35087020
 q=  -0.12677228  0.38031683 -2.35087020
 q=  -0.38031683  0.12677228 -2.35087020
 q=   0.12677228  0.38031683  2.35087020
 q=  -0.12677228 -0.38031683  2.35087020
 q=  -0.38031683 -0.12677228  2.35087020
  reading force constants from file sn.beta.dyn35
  nqs=            8
 q=   0.12677228  0.38031683 -1.88069616
 q=  -0.12677228 -0.38031683 -1.88069616
 q=  -0.38031683 -0.12677228 -1.88069616
 q=  -0.12677228  0.38031683  1.88069616
 q=   0.12677228 -0.38031683  1.88069616
 q=  -0.38031683  0.12677228  1.88069616
 q=   0.38031683 -0.12677228  1.88069616
 q=   0.38031683  0.12677228  1.88069616
  reading force constants from file sn.beta.dyn36
  nqs=           16
 q=   0.12677228 -0.50708911  0.70526106
 q=  -0.50708911  0.12677228  0.70526106
 q=  -0.12677228  0.50708911  0.70526106
 q=   0.50708911 -0.12677228  0.70526106
 q=  -0.12677228 -0.50708911 -0.70526106
 q=   0.12677228  0.50708911 -0.70526106
 q=   0.50708911  0.12677228 -0.70526106
 q=  -0.50708911 -0.12677228 -0.70526106
 q=   0.12677228  0.50708911  0.70526106
 q=  -0.50708911 -0.12677228  0.70526106
 q=  -0.50708911  0.12677228 -0.70526106
 q=  -0.12677228 -0.50708911  0.70526106
 q=   0.50708911  0.12677228  0.70526106
 q=   0.12677228 -0.50708911 -0.70526106
 q=  -0.12677228  0.50708911 -0.70526106
 q=   0.50708911 -0.12677228 -0.70526106
  reading force constants from file sn.beta.dyn37
  nqs=           16
 q=   0.12677228 -0.50708911  1.64560914
 q=  -0.50708911  0.12677228  1.64560914
 q=  -0.12677228  0.50708911  1.64560914
 q=   0.50708911 -0.12677228  1.64560914
 q=  -0.12677228 -0.50708911 -1.64560914
 q=   0.12677228  0.50708911 -1.64560914
 q=   0.50708911  0.12677228 -1.64560914
 q=  -0.50708911 -0.12677228 -1.64560914
 q=   0.12677228  0.50708911  1.64560914
 q=  -0.50708911 -0.12677228  1.64560914
 q=  -0.50708911  0.12677228 -1.64560914
 q=  -0.12677228 -0.50708911  1.64560914
 q=   0.50708911  0.12677228  1.64560914
 q=   0.12677228 -0.50708911 -1.64560914
 q=  -0.12677228  0.50708911 -1.64560914
 q=   0.50708911 -0.12677228 -1.64560914
  reading force constants from file sn.beta.dyn38
  nqs=            8
 q=   0.25354455  0.25354455 -0.94034808
 q=  -0.25354455 -0.25354455 -0.94034808
 q=  -0.25354455  0.25354455  0.94034808
 q=   0.25354455 -0.25354455  0.94034808
 q=   0.25354455 -0.25354455 -0.94034808
 q=   0.25354455  0.25354455  0.94034808
 q=  -0.25354455  0.25354455 -0.94034808
 q=  -0.25354455 -0.25354455  0.94034808
  reading force constants from file sn.beta.dyn39
  nqs=            8
 q=   0.25354455  0.25354455 -0.47017404
 q=  -0.25354455 -0.25354455 -0.47017404
 q=  -0.25354455  0.25354455  0.47017404
 q=   0.25354455 -0.25354455  0.47017404
 q=   0.25354455 -0.25354455 -0.47017404
 q=   0.25354455  0.25354455  0.47017404
 q=  -0.25354455  0.25354455 -0.47017404
 q=  -0.25354455 -0.25354455  0.47017404
  reading force constants from file sn.beta.dyn40
  nqs=            4
 q=   0.25354455  0.25354455  0.00000000
 q=  -0.25354455  0.25354455  0.00000000
 q=   0.25354455 -0.25354455  0.00000000
 q=  -0.25354455 -0.25354455  0.00000000
  reading force constants from file sn.beta.dyn41
  nqs=            8
 q=   0.25354455  0.25354455 -2.35087020
 q=  -0.25354455 -0.25354455 -2.35087020
 q=  -0.25354455  0.25354455  2.35087020
 q=   0.25354455 -0.25354455  2.35087020
 q=   0.25354455 -0.25354455 -2.35087020
 q=   0.25354455  0.25354455  2.35087020
 q=  -0.25354455  0.25354455 -2.35087020
 q=  -0.25354455 -0.25354455  2.35087020
  reading force constants from file sn.beta.dyn42
  nqs=            4
 q=   0.25354455  0.25354455 -1.88069616
 q=  -0.25354455  0.25354455  1.88069616
 q=   0.25354455 -0.25354455  1.88069616
 q=  -0.25354455 -0.25354455 -1.88069616
  reading force constants from file sn.beta.dyn43
  nqs=           16
 q=   0.25354455  0.38031683 -1.17543510
 q=   0.38031683  0.25354455 -1.17543510
 q=  -0.25354455 -0.38031683 -1.17543510
 q=  -0.38031683 -0.25354455 -1.17543510
 q=  -0.25354455  0.38031683  1.17543510
 q=   0.25354455 -0.38031683  1.17543510
 q=  -0.38031683  0.25354455  1.17543510
 q=   0.38031683 -0.25354455  1.17543510
 q=   0.25354455 -0.38031683 -1.17543510
 q=   0.38031683 -0.25354455 -1.17543510
 q=   0.38031683  0.25354455  1.17543510
 q=  -0.25354455  0.38031683 -1.17543510
 q=  -0.38031683  0.25354455 -1.17543510
 q=   0.25354455  0.38031683  1.17543510
 q=  -0.25354455 -0.38031683  1.17543510
 q=  -0.38031683 -0.25354455  1.17543510
  reading force constants from file sn.beta.dyn44
  nqs=           16
 q=   0.25354455  0.38031683 -0.70526106
 q=   0.38031683  0.25354455 -0.70526106
 q=  -0.25354455 -0.38031683 -0.70526106
 q=  -0.38031683 -0.25354455 -0.70526106
 q=  -0.25354455  0.38031683  0.70526106
 q=   0.25354455 -0.38031683  0.70526106
 q=  -0.38031683  0.25354455  0.70526106
 q=   0.38031683 -0.25354455  0.70526106
 q=   0.25354455 -0.38031683 -0.70526106
 q=   0.38031683 -0.25354455 -0.70526106
 q=   0.38031683  0.25354455  0.70526106
 q=  -0.25354455  0.38031683 -0.70526106
 q=  -0.38031683  0.25354455 -0.70526106
 q=   0.25354455  0.38031683  0.70526106
 q=  -0.25354455 -0.38031683  0.70526106
 q=  -0.38031683 -0.25354455  0.70526106
  reading force constants from file sn.beta.dyn45
  nqs=           16
 q=   0.25354455  0.38031683 -0.23508702
 q=   0.38031683  0.25354455 -0.23508702
 q=  -0.25354455 -0.38031683 -0.23508702
 q=  -0.38031683 -0.25354455 -0.23508702
 q=  -0.25354455  0.38031683  0.23508702
 q=   0.25354455 -0.38031683  0.23508702
 q=  -0.38031683  0.25354455  0.23508702
 q=   0.38031683 -0.25354455  0.23508702
 q=   0.25354455 -0.38031683 -0.23508702
 q=   0.38031683 -0.25354455 -0.23508702
 q=   0.38031683  0.25354455  0.23508702
 q=  -0.25354455  0.38031683 -0.23508702
 q=  -0.38031683  0.25354455 -0.23508702
 q=   0.25354455  0.38031683  0.23508702
 q=  -0.25354455 -0.38031683  0.23508702
 q=  -0.38031683 -0.25354455  0.23508702
  reading force constants from file sn.beta.dyn46
  nqs=           16
 q=   0.25354455  0.38031683 -2.11578318
 q=   0.38031683  0.25354455 -2.11578318
 q=  -0.25354455 -0.38031683 -2.11578318
 q=  -0.38031683 -0.25354455 -2.11578318
 q=  -0.25354455  0.38031683  2.11578318
 q=   0.25354455 -0.38031683  2.11578318
 q=  -0.38031683  0.25354455  2.11578318
 q=   0.38031683 -0.25354455  2.11578318
 q=   0.25354455 -0.38031683 -2.11578318
 q=   0.38031683 -0.25354455 -2.11578318
 q=   0.38031683  0.25354455  2.11578318
 q=  -0.25354455  0.38031683 -2.11578318
 q=  -0.38031683  0.25354455 -2.11578318
 q=   0.25354455  0.38031683  2.11578318
 q=  -0.25354455 -0.38031683  2.11578318
 q=  -0.38031683 -0.25354455  2.11578318
  reading force constants from file sn.beta.dyn47
  nqs=           16
 q=   0.25354455 -0.50708911  0.47017404
 q=  -0.50708911  0.25354455  0.47017404
 q=  -0.25354455  0.50708911  0.47017404
 q=   0.50708911 -0.25354455  0.47017404
 q=  -0.25354455 -0.50708911 -0.47017404
 q=   0.25354455  0.50708911 -0.47017404
 q=   0.50708911  0.25354455 -0.47017404
 q=  -0.50708911 -0.25354455 -0.47017404
 q=   0.25354455  0.50708911  0.47017404
 q=  -0.50708911 -0.25354455  0.47017404
 q=  -0.50708911  0.25354455 -0.47017404
 q=  -0.25354455 -0.50708911  0.47017404
 q=   0.50708911  0.25354455  0.47017404
 q=   0.25354455 -0.50708911 -0.47017404
 q=  -0.25354455  0.50708911 -0.47017404
 q=   0.50708911 -0.25354455 -0.47017404
  reading force constants from file sn.beta.dyn48
  nqs=            8
 q=   0.25354455 -0.50708911  0.94034808
 q=  -0.25354455  0.50708911  0.94034808
 q=   0.50708911 -0.25354455  0.94034808
 q=  -0.50708911  0.25354455  0.94034808
 q=   0.25354455  0.50708911  0.94034808
 q=  -0.50708911 -0.25354455  0.94034808
 q=  -0.50708911  0.25354455 -0.94034808
 q=  -0.25354455 -0.50708911  0.94034808
  reading force constants from file sn.beta.dyn49
  nqs=            8
 q=   0.25354455 -0.50708911  1.88069616
 q=  -0.25354455  0.50708911  1.88069616
 q=   0.50708911 -0.25354455  1.88069616
 q=  -0.25354455 -0.50708911 -1.88069616
 q=   0.25354455  0.50708911 -1.88069616
 q=   0.50708911  0.25354455 -1.88069616
 q=  -0.50708911 -0.25354455 -1.88069616
 q=  -0.50708911  0.25354455 -1.88069616
  reading force constants from file sn.beta.dyn50
  nqs=            8
 q=   0.38031683  0.38031683 -1.41052212
 q=  -0.38031683 -0.38031683 -1.41052212
 q=  -0.38031683  0.38031683  1.41052212
 q=   0.38031683 -0.38031683  1.41052212
 q=   0.38031683 -0.38031683 -1.41052212
 q=   0.38031683  0.38031683  1.41052212
 q=  -0.38031683  0.38031683 -1.41052212
 q=  -0.38031683 -0.38031683  1.41052212
  reading force constants from file sn.beta.dyn51
  nqs=            8
 q=   0.38031683  0.38031683 -0.94034808
 q=  -0.38031683 -0.38031683 -0.94034808
 q=  -0.38031683  0.38031683  0.94034808
 q=   0.38031683 -0.38031683  0.94034808
 q=   0.38031683 -0.38031683 -0.94034808
 q=   0.38031683  0.38031683  0.94034808
 q=  -0.38031683  0.38031683 -0.94034808
 q=  -0.38031683 -0.38031683  0.94034808
  reading force constants from file sn.beta.dyn52
  nqs=            8
 q=   0.38031683  0.38031683 -0.47017404
 q=  -0.38031683 -0.38031683 -0.47017404
 q=  -0.38031683  0.38031683  0.47017404
 q=   0.38031683 -0.38031683  0.47017404
 q=   0.38031683 -0.38031683 -0.47017404
 q=   0.38031683  0.38031683  0.47017404
 q=  -0.38031683  0.38031683 -0.47017404
 q=  -0.38031683 -0.38031683  0.47017404
  reading force constants from file sn.beta.dyn53
  nqs=            4
 q=   0.38031683  0.38031683  0.00000000
 q=  -0.38031683  0.38031683  0.00000000
 q=   0.38031683 -0.38031683  0.00000000
 q=  -0.38031683 -0.38031683  0.00000000
  reading force constants from file sn.beta.dyn54
  nqs=            4
 q=   0.38031683  0.38031683 -1.88069616
 q=  -0.38031683  0.38031683  1.88069616
 q=   0.38031683 -0.38031683  1.88069616
 q=  -0.38031683 -0.38031683 -1.88069616
  reading force constants from file sn.beta.dyn55
  nqs=           16
 q=   0.38031683 -0.50708911  0.23508702
 q=  -0.50708911  0.38031683  0.23508702
 q=  -0.38031683  0.50708911  0.23508702
 q=   0.50708911 -0.38031683  0.23508702
 q=  -0.38031683 -0.50708911 -0.23508702
 q=   0.38031683  0.50708911 -0.23508702
 q=   0.50708911  0.38031683 -0.23508702
 q=  -0.50708911 -0.38031683 -0.23508702
 q=   0.38031683  0.50708911  0.23508702
 q=  -0.50708911 -0.38031683  0.23508702
 q=  -0.50708911  0.38031683 -0.23508702
 q=  -0.38031683 -0.50708911  0.23508702
 q=   0.50708911  0.38031683  0.23508702
 q=   0.38031683 -0.50708911 -0.23508702
 q=  -0.38031683  0.50708911 -0.23508702
 q=   0.50708911 -0.38031683 -0.23508702
  reading force constants from file sn.beta.dyn56
  nqs=           16
 q=   0.38031683 -0.50708911  0.70526106
 q=  -0.50708911  0.38031683  0.70526106
 q=  -0.38031683  0.50708911  0.70526106
 q=   0.50708911 -0.38031683  0.70526106
 q=  -0.38031683 -0.50708911 -0.70526106
 q=   0.38031683  0.50708911 -0.70526106
 q=   0.50708911  0.38031683 -0.70526106
 q=  -0.50708911 -0.38031683 -0.70526106
 q=   0.38031683  0.50708911  0.70526106
 q=  -0.50708911 -0.38031683  0.70526106
 q=  -0.50708911  0.38031683 -0.70526106
 q=  -0.38031683 -0.50708911  0.70526106
 q=   0.50708911  0.38031683  0.70526106
 q=   0.38031683 -0.50708911 -0.70526106
 q=  -0.38031683  0.50708911 -0.70526106
 q=   0.50708911 -0.38031683 -0.70526106
  reading force constants from file sn.beta.dyn57
  nqs=            2
 q=  -0.50708911 -0.50708911  1.88069616
 q=  -0.50708911  0.50708911  1.88069616
  reading force constants from file sn.beta.dyn58
  nqs=            4
 q=  -0.50708911 -0.50708911  2.35087020
 q=   0.50708911 -0.50708911 -2.35087020
 q=  -0.50708911  0.50708911  2.35087020
 q=  -0.50708911 -0.50708911 -2.35087020
  reading force constants from file sn.beta.dyn59
  nqs=            2
 q=  -0.50708911 -0.50708911  2.82104424
 q=  -0.50708911  0.50708911  2.82104424

      q-space grid ok, #points =  512

      fft-check success (sum of imaginary terms < 10^-12)

     Q2R          :     0.12s CPU         0.12s WALL


   This run was terminated on:  12: 1: 4  14Dec2017            

=------------------------------------------------------------------------------=
   JOB DONE.
=------------------------------------------------------------------------------=
