
     Program MATDYN v.6.1 (svn rev. 13369) starts on 14Dec2017 at 10:41: 0 

     This program is part of the open-source Quantum ESPRESSO suite
     for quantum simulation of materials; please cite
         "P. Giannozzi et al., J. Phys.:Condens. Matter 21 395502 (2009);
          URL http://www.quantum-espresso.org", 
     in publications or presentations arising from this work. More details at
     http://www.quantum-espresso.org/quote

     Parallel version (MPI), running on     1 processors
 mass for atomic type   1 not given; uses mass from file sn.beta.888.fc                                                                                                                                                                                                                                                  
     Message from routine matdyn:
     Z* not found in file sn.beta.888.fc, TO-LO splitting at q=0 will be absent!
     A direction for q was not specified:TO-LO splitting will be absent

     MATDYN       :     0.31s CPU         0.32s WALL


   This run was terminated on:  10:41: 0  14Dec2017            

=------------------------------------------------------------------------------=
   JOB DONE.
=------------------------------------------------------------------------------=
