
     Program PWSCF v.6.1 (svn rev. 13369) starts on 13Nov2017 at  9:51:15 

     This program is part of the open-source Quantum ESPRESSO suite
     for quantum simulation of materials; please cite
         "P. Giannozzi et al., J. Phys.:Condens. Matter 21 395502 (2009);
          URL http://www.quantum-espresso.org", 
     in publications or presentations arising from this work. More details at
     http://www.quantum-espresso.org/quote

     Parallel version (MPI), running on     4 processors
     R & G space division:  proc/nbgrp/npool/nimage =       4
     Waiting for input...
     Reading input from standard input

     Current dimensions of program PWSCF are:
     Max number of different atomic species (ntypx) = 10
     Max number of k-points (npk) =  40000
     Max angular momentum in pseudopotentials (lmaxx) =  3

     Subspace diagonalization in iterative solution of the eigenvalue problem:
     a serial algorithm will be used


     Parallelization info
     --------------------
     sticks:   dense  smooth     PW     G-vecs:    dense   smooth      PW
     Min        1173     471    192                16283     4148    1086
     Max        1174     472    193                16284     4149    1087
     Sum        4693    1885    769                65133    16593    4345



     bravais-lattice index     =            0
     lattice parameter (alat)  =      11.0000  a.u.
     unit-cell volume          =     345.8405 (a.u.)^3
     number of atoms/cell      =            2
     number of atomic types    =            1
     number of electrons       =        28.00
     number of Kohn-Sham states=           18
     kinetic-energy cutoff     =      50.0000  Ry
     charge density cutoff     =     500.0000  Ry
     convergence threshold     =      1.0E-08
     mixing beta               =       0.7000
     number of iterations used =            8  plain     mixing
     Exchange-correlation      =  SLA  PW   PBX  PBC ( 1  4  3  4 0 0)

     celldm(1)=  11.000000  celldm(2)=   0.000000  celldm(3)=   0.000000
     celldm(4)=   0.000000  celldm(5)=   0.000000  celldm(6)=   0.000000

     crystal axes: (cart. coord. in units of alat)
               a(1) = (   0.986837   0.000000   0.000000 )  
               a(2) = (   0.000000   0.986837   0.000000 )  
               a(3) = (   0.493419   0.493419   0.266813 )  

     reciprocal axes: (cart. coord. in units 2 pi/alat)
               b(1) = (  1.013339  0.000000 -1.873974 )  
               b(2) = (  0.000000  1.013339 -1.873974 )  
               b(3) = (  0.000000  0.000000  3.747943 )  


     PseudoPot. # 1 for Sn read from file:
     /home/s1333534/quantum_espresso/qe-6.1/pseudo/sn_pbe_v1.4.uspp.F.UPF
     MD5 check sum: 469debedee59599fedebd795477fea03
     Pseudo is Ultrasoft + core correction, Zval = 14.0
     Generated by new atomic code, or converted to UPF format
     Using radial grid of  891 points,  6 beta functions with: 
                l(1) =   0
                l(2) =   0
                l(3) =   1
                l(4) =   1
                l(5) =   2
                l(6) =   2
     Q(r) pseudized with  8 coefficients,  rinner =    1.350   1.350   1.350
                                                       1.350   1.350

     atomic species   valence    mass     pseudopotential
        Sn            14.00   118.71000     Sn( 1.00)

     No symmetry found



   Cartesian axes

     site n.     atom                  positions (alat units)
         1           Sn  tau(   1) = (   1.0725850   1.3160481   0.0533919  )
         2           Sn  tau(   2) = (   0.5198369   0.2763739   0.0177973  )

     number of k points=   800  Marzari-Vanderbilt smearing, width (Ry)=  0.0200

     Number of k-points >= 100: set verbosity='high' to print them.

     Dense  grid:    65133 G-vectors     FFT dimensions: (  80,  80,  60)

     Smooth grid:    16593 G-vectors     FFT dimensions: (  50,  50,  40)

     Estimated max dynamical RAM per process >     128.13MB

     Estimated total allocated dynamical RAM >     512.51MB

     Initial potential from superposition of free atoms

     starting charge   25.99991, renormalised to   28.00000
     Starting wfc are   18 randomized atomic wfcs

     total cpu time spent up to now is       20.3 secs

     per-process dynamical memory:   140.7 Mb

     Self-consistent Calculation

     iteration #  1     ecut=    50.00 Ry     beta=0.70
     Davidson diagonalization with overlap
     ethr =  1.00E-02,  avg # of iterations =  4.0

     total cpu time spent up to now is       98.2 secs

     total energy              =    -317.50164742 Ry
     Harris-Foulkes estimate   =    -319.43617800 Ry
     estimated scf accuracy    <       2.36977100 Ry

     iteration #  2     ecut=    50.00 Ry     beta=0.70
     Davidson diagonalization with overlap
     ethr =  8.46E-03,  avg # of iterations =  2.5

     total cpu time spent up to now is      165.0 secs

     total energy              =    -318.33905344 Ry
     Harris-Foulkes estimate   =    -318.63144986 Ry
     estimated scf accuracy    <       0.43035326 Ry

     iteration #  3     ecut=    50.00 Ry     beta=0.70
     Davidson diagonalization with overlap
     ethr =  1.54E-03,  avg # of iterations =  2.0

     total cpu time spent up to now is      230.0 secs

     total energy              =    -318.42819049 Ry
     Harris-Foulkes estimate   =    -318.42986272 Ry
     estimated scf accuracy    <       0.00283598 Ry

     iteration #  4     ecut=    50.00 Ry     beta=0.70
     Davidson diagonalization with overlap
     ethr =  1.01E-05,  avg # of iterations =  3.6

     total cpu time spent up to now is      304.7 secs

     total energy              =    -318.42879459 Ry
     Harris-Foulkes estimate   =    -318.42894944 Ry
     estimated scf accuracy    <       0.00031000 Ry

     iteration #  5     ecut=    50.00 Ry     beta=0.70
     Davidson diagonalization with overlap
     ethr =  1.11E-06,  avg # of iterations =  2.6

     total cpu time spent up to now is      360.8 secs

     total energy              =    -318.42884354 Ry
     Harris-Foulkes estimate   =    -318.42885357 Ry
     estimated scf accuracy    <       0.00001761 Ry

     iteration #  6     ecut=    50.00 Ry     beta=0.70
     Davidson diagonalization with overlap
     ethr =  6.29E-08,  avg # of iterations =  3.0

     total cpu time spent up to now is      432.0 secs

     total energy              =    -318.42885008 Ry
     Harris-Foulkes estimate   =    -318.42885051 Ry
     estimated scf accuracy    <       0.00000090 Ry

     iteration #  7     ecut=    50.00 Ry     beta=0.70
     Davidson diagonalization with overlap
     ethr =  3.22E-09,  avg # of iterations =  2.9

     total cpu time spent up to now is      496.3 secs

     total energy              =    -318.42885023 Ry
     Harris-Foulkes estimate   =    -318.42885034 Ry
     estimated scf accuracy    <       0.00000017 Ry

     iteration #  8     ecut=    50.00 Ry     beta=0.70
     Davidson diagonalization with overlap
     ethr =  6.08E-10,  avg # of iterations =  2.9

     total cpu time spent up to now is      569.1 secs

     End of self-consistent calculation

     Number of k-points >= 100: set verbosity='high' to print the bands.

     the Fermi energy is    11.6662 ev

!    total energy              =    -318.42885028 Ry
     Harris-Foulkes estimate   =    -318.42885028 Ry
     estimated scf accuracy    <          4.5E-09 Ry

     The total energy is the sum of the following terms:

     one-electron contribution =    -110.23360868 Ry
     hartree contribution      =      76.36210871 Ry
     xc contribution           =     -86.14385067 Ry
     ewald contribution        =    -198.41351949 Ry
     smearing contrib. (-TS)   =       0.00001986 Ry

     convergence has been achieved in   8 iterations

     Writing output data file sn.beta.11.00.save

     init_run     :     19.55s CPU     20.11s WALL (       1 calls)
     electrons    :    534.75s CPU    549.28s WALL (       1 calls)

     Called by init_run:
     wfcinit      :     18.48s CPU     18.97s WALL (       1 calls)
     potinit      :      0.28s CPU      0.29s WALL (       1 calls)

     Called by electrons:
     c_bands      :    447.80s CPU    459.13s WALL (       8 calls)
     sum_band     :     85.27s CPU     87.82s WALL (       8 calls)
     v_of_rho     :      0.86s CPU      0.91s WALL (       9 calls)
     newd         :      0.82s CPU      0.93s WALL (       9 calls)
     mix_rho      :      0.08s CPU      0.10s WALL (       8 calls)

     Called by c_bands:
     init_us_2    :      4.20s CPU      4.28s WALL (   13600 calls)
     cegterg      :    439.79s CPU    450.90s WALL (    6400 calls)

     Called by sum_band:
     sum_band:bec :      0.08s CPU      0.10s WALL (    6400 calls)
     addusdens    :      0.90s CPU      1.04s WALL (       8 calls)

     Called by *egterg:
     h_psi        :    414.58s CPU    425.42s WALL (   26038 calls)
     s_psi        :      3.25s CPU      3.28s WALL (   26038 calls)
     g_psi        :      0.89s CPU      0.91s WALL (   18838 calls)
     cdiaghg      :     16.47s CPU     16.73s WALL (   25238 calls)

     Called by h_psi:
     h_psi:pot    :    412.43s CPU    423.24s WALL (   26038 calls)
     h_psi:calbec :      6.81s CPU      6.92s WALL (   26038 calls)
     vloc_psi     :    400.56s CPU    411.13s WALL (   26038 calls)
     add_vuspsi   :      5.03s CPU      5.10s WALL (   26038 calls)

     General routines
     calbec       :      9.06s CPU      9.19s WALL (   32438 calls)
     fft          :      0.57s CPU      0.65s WALL (     140 calls)
     ffts         :      0.02s CPU      0.02s WALL (      17 calls)
     fftw         :    327.83s CPU    337.01s WALL (  802674 calls)
     interpolate  :      0.10s CPU      0.12s WALL (      17 calls)
     davcio       :      0.01s CPU      0.03s WALL (     800 calls)

     Parallel routines
     fft_scatter  :     55.81s CPU     57.73s WALL (  802831 calls)

     PWSCF        :  9m15.64s CPU    10m20.93s WALL


   This run was terminated on:  10: 1:36  13Nov2017            

=------------------------------------------------------------------------------=
   JOB DONE.
=------------------------------------------------------------------------------=
