
     Program PWSCF v.6.1 (svn rev. 13369) starts on 13Nov2017 at 10:11: 5 

     This program is part of the open-source Quantum ESPRESSO suite
     for quantum simulation of materials; please cite
         "P. Giannozzi et al., J. Phys.:Condens. Matter 21 395502 (2009);
          URL http://www.quantum-espresso.org", 
     in publications or presentations arising from this work. More details at
     http://www.quantum-espresso.org/quote

     Parallel version (MPI), running on     4 processors
     R & G space division:  proc/nbgrp/npool/nimage =       4
     Waiting for input...
     Reading input from standard input

     Current dimensions of program PWSCF are:
     Max number of different atomic species (ntypx) = 10
     Max number of k-points (npk) =  40000
     Max angular momentum in pseudopotentials (lmaxx) =  3

     Subspace diagonalization in iterative solution of the eigenvalue problem:
     a serial algorithm will be used


     Parallelization info
     --------------------
     sticks:   dense  smooth     PW     G-vecs:    dense   smooth      PW
     Min        1098     437    183                14823     3740    1021
     Max        1100     438    184                14824     3741    1022
     Sum        4397    1749    733                59293    14961    4085



     bravais-lattice index     =            0
     lattice parameter (alat)  =      10.6500  a.u.
     unit-cell volume          =     313.8677 (a.u.)^3
     number of atoms/cell      =            2
     number of atomic types    =            1
     number of electrons       =        28.00
     number of Kohn-Sham states=           18
     kinetic-energy cutoff     =      50.0000  Ry
     charge density cutoff     =     500.0000  Ry
     convergence threshold     =      1.0E-08
     mixing beta               =       0.7000
     number of iterations used =            8  plain     mixing
     Exchange-correlation      =  SLA  PW   PBX  PBC ( 1  4  3  4 0 0)

     celldm(1)=  10.650000  celldm(2)=   0.000000  celldm(3)=   0.000000
     celldm(4)=   0.000000  celldm(5)=   0.000000  celldm(6)=   0.000000

     crystal axes: (cart. coord. in units of alat)
               a(1) = (   0.986837   0.000000   0.000000 )  
               a(2) = (   0.000000   0.986837   0.000000 )  
               a(3) = (   0.493419   0.493419   0.266813 )  

     reciprocal axes: (cart. coord. in units 2 pi/alat)
               b(1) = (  1.013339  0.000000 -1.873974 )  
               b(2) = (  0.000000  1.013339 -1.873974 )  
               b(3) = (  0.000000  0.000000  3.747943 )  


     PseudoPot. # 1 for Sn read from file:
     /home/s1333534/quantum_espresso/qe-6.1/pseudo/sn_pbe_v1.4.uspp.F.UPF
     MD5 check sum: 469debedee59599fedebd795477fea03
     Pseudo is Ultrasoft + core correction, Zval = 14.0
     Generated by new atomic code, or converted to UPF format
     Using radial grid of  891 points,  6 beta functions with: 
                l(1) =   0
                l(2) =   0
                l(3) =   1
                l(4) =   1
                l(5) =   2
                l(6) =   2
     Q(r) pseudized with  8 coefficients,  rinner =    1.350   1.350   1.350
                                                       1.350   1.350

     atomic species   valence    mass     pseudopotential
        Sn            14.00   118.71000     Sn( 1.00)

     No symmetry found



   Cartesian axes

     site n.     atom                  positions (alat units)
         1           Sn  tau(   1) = (   1.0725850   1.3160481   0.0533919  )
         2           Sn  tau(   2) = (   0.5198369   0.2763739   0.0177973  )

     number of k points=   800  Marzari-Vanderbilt smearing, width (Ry)=  0.0200

     Number of k-points >= 100: set verbosity='high' to print them.

     Dense  grid:    59293 G-vectors     FFT dimensions: (  75,  75,  60)

     Smooth grid:    14961 G-vectors     FFT dimensions: (  48,  48,  36)

     Estimated max dynamical RAM per process >     116.06MB

     Estimated total allocated dynamical RAM >     464.24MB

     Initial potential from superposition of free atoms

     starting charge   25.99991, renormalised to   28.00000
     Starting wfc are   18 randomized atomic wfcs

     total cpu time spent up to now is       14.6 secs

     per-process dynamical memory:   128.6 Mb

     Self-consistent Calculation

     iteration #  1     ecut=    50.00 Ry     beta=0.70
     Davidson diagonalization with overlap
     ethr =  1.00E-02,  avg # of iterations =  4.1

     total cpu time spent up to now is       71.9 secs

     total energy              =    -317.48907165 Ry
     Harris-Foulkes estimate   =    -319.37467722 Ry
     estimated scf accuracy    <       2.31186492 Ry

     iteration #  2     ecut=    50.00 Ry     beta=0.70
     Davidson diagonalization with overlap
     ethr =  8.26E-03,  avg # of iterations =  2.4

     total cpu time spent up to now is      120.6 secs

     total energy              =    -318.30431999 Ry
     Harris-Foulkes estimate   =    -318.58636797 Ry
     estimated scf accuracy    <       0.41528403 Ry

     iteration #  3     ecut=    50.00 Ry     beta=0.70
     Davidson diagonalization with overlap
     ethr =  1.48E-03,  avg # of iterations =  2.0

     total cpu time spent up to now is      168.2 secs

     total energy              =    -318.39028901 Ry
     Harris-Foulkes estimate   =    -318.39186011 Ry
     estimated scf accuracy    <       0.00268448 Ry

     iteration #  4     ecut=    50.00 Ry     beta=0.70
     Davidson diagonalization with overlap
     ethr =  9.59E-06,  avg # of iterations =  3.7

     total cpu time spent up to now is      223.3 secs

     total energy              =    -318.39087324 Ry
     Harris-Foulkes estimate   =    -318.39101263 Ry
     estimated scf accuracy    <       0.00028149 Ry

     iteration #  5     ecut=    50.00 Ry     beta=0.70
     Davidson diagonalization with overlap
     ethr =  1.01E-06,  avg # of iterations =  2.6

     total cpu time spent up to now is      264.8 secs

     total energy              =    -318.39091729 Ry
     Harris-Foulkes estimate   =    -318.39092665 Ry
     estimated scf accuracy    <       0.00001657 Ry

     iteration #  6     ecut=    50.00 Ry     beta=0.70
     Davidson diagonalization with overlap
     ethr =  5.92E-08,  avg # of iterations =  3.0

     total cpu time spent up to now is      316.8 secs

     total energy              =    -318.39092316 Ry
     Harris-Foulkes estimate   =    -318.39092358 Ry
     estimated scf accuracy    <       0.00000082 Ry

     iteration #  7     ecut=    50.00 Ry     beta=0.70
     Davidson diagonalization with overlap
     ethr =  2.92E-09,  avg # of iterations =  3.0

     total cpu time spent up to now is      366.5 secs

     total energy              =    -318.39092331 Ry
     Harris-Foulkes estimate   =    -318.39092342 Ry
     estimated scf accuracy    <       0.00000016 Ry

     iteration #  8     ecut=    50.00 Ry     beta=0.70
     Davidson diagonalization with overlap
     ethr =  5.70E-10,  avg # of iterations =  2.1

     total cpu time spent up to now is      413.1 secs

     End of self-consistent calculation

     Number of k-points >= 100: set verbosity='high' to print the bands.

     the Fermi energy is    13.3112 ev

!    total energy              =    -318.39092336 Ry
     Harris-Foulkes estimate   =    -318.39092336 Ry
     estimated scf accuracy    <          2.8E-09 Ry

     The total energy is the sum of the following terms:

     one-electron contribution =     -99.98435899 Ry
     hartree contribution      =      72.79946081 Ry
     xc contribution           =     -86.27188639 Ry
     ewald contribution        =    -204.93415159 Ry
     smearing contrib. (-TS)   =       0.00001280 Ry

     convergence has been achieved in   8 iterations

     Writing output data file sn.beta.10.65.save

     init_run     :     14.12s CPU     14.52s WALL (       1 calls)
     electrons    :    387.27s CPU    398.60s WALL (       1 calls)

     Called by init_run:
     wfcinit      :     13.15s CPU     13.53s WALL (       1 calls)
     potinit      :      0.25s CPU      0.26s WALL (       1 calls)

     Called by electrons:
     c_bands      :    318.11s CPU    327.43s WALL (       8 calls)
     sum_band     :     67.67s CPU     69.54s WALL (       8 calls)
     v_of_rho     :      0.74s CPU      0.78s WALL (       9 calls)
     newd         :      0.77s CPU      0.82s WALL (       9 calls)
     mix_rho      :      0.07s CPU      0.07s WALL (       8 calls)

     Called by c_bands:
     init_us_2    :      3.37s CPU      3.45s WALL (   13600 calls)
     cegterg      :    311.08s CPU    320.28s WALL (    6400 calls)

     Called by sum_band:
     sum_band:bec :      0.06s CPU      0.09s WALL (    6400 calls)
     addusdens    :      0.84s CPU      0.94s WALL (       8 calls)

     Called by *egterg:
     h_psi        :    285.93s CPU    294.83s WALL (   25494 calls)
     s_psi        :      2.18s CPU      2.20s WALL (   25494 calls)
     g_psi        :      0.80s CPU      0.83s WALL (   18294 calls)
     cdiaghg      :     16.03s CPU     16.27s WALL (   24694 calls)

     Called by h_psi:
     h_psi:pot    :    284.83s CPU    293.67s WALL (   25494 calls)
     h_psi:calbec :      5.78s CPU      5.90s WALL (   25494 calls)
     vloc_psi     :    276.17s CPU    284.77s WALL (   25494 calls)
     add_vuspsi   :      2.87s CPU      2.91s WALL (   25494 calls)

     General routines
     calbec       :      7.59s CPU      7.72s WALL (   31894 calls)
     fft          :      0.49s CPU      0.54s WALL (     140 calls)
     ffts         :      0.01s CPU      0.01s WALL (      17 calls)
     fftw         :    205.40s CPU    211.69s WALL (  804570 calls)
     interpolate  :      0.08s CPU      0.09s WALL (      17 calls)
     davcio       :      0.01s CPU      0.04s WALL (     800 calls)

     Parallel routines
     fft_scatter  :     52.60s CPU     54.45s WALL (  804727 calls)

     PWSCF        :  6m42.51s CPU     7m 7.60s WALL


   This run was terminated on:  10:18:13  13Nov2017            

=------------------------------------------------------------------------------=
   JOB DONE.
=------------------------------------------------------------------------------=
