
     Program PWSCF v.6.1 (svn rev. 13369) starts on 11Nov2017 at 15:33:11 

     This program is part of the open-source Quantum ESPRESSO suite
     for quantum simulation of materials; please cite
         "P. Giannozzi et al., J. Phys.:Condens. Matter 21 395502 (2009);
          URL http://www.quantum-espresso.org", 
     in publications or presentations arising from this work. More details at
     http://www.quantum-espresso.org/quote

     Parallel version (MPI), running on     4 processors
     R & G space division:  proc/nbgrp/npool/nimage =       4
     Waiting for input...
     Reading input from standard input
     Message from routine read_cards :
     DEPRECATED: no units specified in ATOMIC_POSITIONS card
     Message from routine read_cards :
     ATOMIC_POSITIONS: units set to alat

     Current dimensions of program PWSCF are:
     Max number of different atomic species (ntypx) = 10
     Max number of k-points (npk) =  40000
     Max angular momentum in pseudopotentials (lmaxx) =  3

     Subspace diagonalization in iterative solution of the eigenvalue problem:
     a serial algorithm will be used


     Parallelization info
     --------------------
     sticks:   dense  smooth     PW     G-vecs:    dense   smooth      PW
     Min         583     289     87                18560     6573    1070
     Max         584     290     88                18563     6577    1073
     Sum        2335    1159    349                74249    26301    4285



     bravais-lattice index     =            2
     lattice parameter (alat)  =      13.0000  a.u.
     unit-cell volume          =     549.2500 (a.u.)^3
     number of atoms/cell      =            2
     number of atomic types    =            1
     number of electrons       =        28.00
     number of Kohn-Sham states=           14
     kinetic-energy cutoff     =      50.0000  Ry
     charge density cutoff     =     400.0000  Ry
     convergence threshold     =      1.0E-08
     mixing beta               =       0.7000
     number of iterations used =            8  plain     mixing
     Exchange-correlation      =  SLA  PW   PBX  PBC ( 1  4  3  4 0 0)

     celldm(1)=  13.000000  celldm(2)=   0.000000  celldm(3)=   0.000000
     celldm(4)=   0.000000  celldm(5)=   0.000000  celldm(6)=   0.000000

     crystal axes: (cart. coord. in units of alat)
               a(1) = (  -0.500000   0.000000   0.500000 )  
               a(2) = (   0.000000   0.500000   0.500000 )  
               a(3) = (  -0.500000   0.500000   0.000000 )  

     reciprocal axes: (cart. coord. in units 2 pi/alat)
               b(1) = ( -1.000000 -1.000000  1.000000 )  
               b(2) = (  1.000000  1.000000  1.000000 )  
               b(3) = ( -1.000000  1.000000 -1.000000 )  


     PseudoPot. # 1 for Sn read from file:
     /home/s1333534/quantum_espresso/qe-6.1/pseudo/sn_pbe_v1.4.uspp.F.UPF
     MD5 check sum: 469debedee59599fedebd795477fea03
     Pseudo is Ultrasoft + core correction, Zval = 14.0
     Generated by new atomic code, or converted to UPF format
     Using radial grid of  891 points,  6 beta functions with: 
                l(1) =   0
                l(2) =   0
                l(3) =   1
                l(4) =   1
                l(5) =   2
                l(6) =   2
     Q(r) pseudized with  8 coefficients,  rinner =    1.350   1.350   1.350
                                                       1.350   1.350

     atomic species   valence    mass     pseudopotential
        Sn            14.00   118.71000     Sn( 1.00)

     48 Sym. Ops., with inversion, found (24 have fractional translation)



   Cartesian axes

     site n.     atom                  positions (alat units)
         1           Sn  tau(   1) = (   0.0000000   0.0000000   0.0000000  )
         2           Sn  tau(   2) = (   0.2500000   0.2500000   0.2500000  )

     number of k points=    60
                       cart. coord. in units 2pi/alat
        k(    1) = (  -0.0625000   0.0625000   0.0625000), wk =   0.0078125
        k(    2) = (  -0.1875000   0.1875000  -0.0625000), wk =   0.0234375
        k(    3) = (  -0.3125000   0.3125000  -0.1875000), wk =   0.0234375
        k(    4) = (  -0.4375000   0.4375000  -0.3125000), wk =   0.0234375
        k(    5) = (   0.4375000  -0.4375000   0.5625000), wk =   0.0234375
        k(    6) = (   0.3125000  -0.3125000   0.4375000), wk =   0.0234375
        k(    7) = (   0.1875000  -0.1875000   0.3125000), wk =   0.0234375
        k(    8) = (   0.0625000  -0.0625000   0.1875000), wk =   0.0234375
        k(    9) = (  -0.0625000   0.3125000   0.0625000), wk =   0.0234375
        k(   10) = (  -0.1875000   0.4375000  -0.0625000), wk =   0.0468750
        k(   11) = (  -0.3125000   0.5625000  -0.1875000), wk =   0.0468750
        k(   12) = (   0.5625000  -0.3125000   0.6875000), wk =   0.0468750
        k(   13) = (   0.4375000  -0.1875000   0.5625000), wk =   0.0468750
        k(   14) = (   0.3125000  -0.0625000   0.4375000), wk =   0.0468750
        k(   15) = (   0.1875000   0.0625000   0.3125000), wk =   0.0468750
        k(   16) = (  -0.0625000   0.5625000   0.0625000), wk =   0.0234375
        k(   17) = (  -0.1875000   0.6875000  -0.0625000), wk =   0.0468750
        k(   18) = (   0.6875000  -0.1875000   0.8125000), wk =   0.0468750
        k(   19) = (   0.5625000  -0.0625000   0.6875000), wk =   0.0468750
        k(   20) = (   0.4375000   0.0625000   0.5625000), wk =   0.0468750
        k(   21) = (   0.3125000   0.1875000   0.4375000), wk =   0.0468750
        k(   22) = (  -0.0625000   0.8125000   0.0625000), wk =   0.0234375
        k(   23) = (   0.8125000  -0.0625000   0.9375000), wk =   0.0468750
        k(   24) = (   0.6875000   0.0625000   0.8125000), wk =   0.0468750
        k(   25) = (   0.5625000   0.1875000   0.6875000), wk =   0.0468750
        k(   26) = (   0.4375000   0.3125000   0.5625000), wk =   0.0468750
        k(   27) = (  -0.0625000  -0.9375000   0.0625000), wk =   0.0234375
        k(   28) = (  -0.1875000  -0.8125000  -0.0625000), wk =   0.0468750
        k(   29) = (  -0.3125000  -0.6875000  -0.1875000), wk =   0.0468750
        k(   30) = (  -0.0625000  -0.6875000   0.0625000), wk =   0.0234375
        k(   31) = (  -0.1875000  -0.5625000  -0.0625000), wk =   0.0468750
        k(   32) = (  -0.0625000  -0.4375000   0.0625000), wk =   0.0234375
        k(   33) = (  -0.1875000   0.1875000   0.1875000), wk =   0.0078125
        k(   34) = (  -0.3125000   0.3125000   0.0625000), wk =   0.0234375
        k(   35) = (  -0.4375000   0.4375000  -0.0625000), wk =   0.0234375
        k(   36) = (   0.4375000  -0.4375000   0.8125000), wk =   0.0234375
        k(   37) = (   0.3125000  -0.3125000   0.6875000), wk =   0.0234375
        k(   38) = (   0.1875000  -0.1875000   0.5625000), wk =   0.0234375
        k(   39) = (  -0.1875000   0.4375000   0.1875000), wk =   0.0234375
        k(   40) = (  -0.3125000   0.5625000   0.0625000), wk =   0.0468750
        k(   41) = (   0.5625000  -0.3125000   0.9375000), wk =   0.0468750
        k(   42) = (   0.4375000  -0.1875000   0.8125000), wk =   0.0468750
        k(   43) = (   0.3125000  -0.0625000   0.6875000), wk =   0.0468750
        k(   44) = (  -0.1875000   0.6875000   0.1875000), wk =   0.0234375
        k(   45) = (   0.6875000  -0.1875000   1.0625000), wk =   0.0468750
        k(   46) = (   0.5625000  -0.0625000   0.9375000), wk =   0.0468750
        k(   47) = (   0.4375000   0.0625000   0.8125000), wk =   0.0468750
        k(   48) = (  -0.1875000  -1.0625000   0.1875000), wk =   0.0234375
        k(   49) = (  -0.3125000  -0.9375000   0.0625000), wk =   0.0468750
        k(   50) = (  -0.1875000  -0.8125000   0.1875000), wk =   0.0234375
        k(   51) = (  -0.3125000   0.3125000   0.3125000), wk =   0.0078125
        k(   52) = (  -0.4375000   0.4375000   0.1875000), wk =   0.0234375
        k(   53) = (   0.4375000  -0.4375000   1.0625000), wk =   0.0234375
        k(   54) = (   0.3125000  -0.3125000   0.9375000), wk =   0.0234375
        k(   55) = (  -0.3125000   0.5625000   0.3125000), wk =   0.0234375
        k(   56) = (   0.5625000  -0.3125000   1.1875000), wk =   0.0468750
        k(   57) = (   0.4375000  -0.1875000   1.0625000), wk =   0.0468750
        k(   58) = (  -0.3125000  -1.1875000   0.3125000), wk =   0.0234375
        k(   59) = (  -0.4375000   0.4375000   0.4375000), wk =   0.0078125
        k(   60) = (   0.4375000  -0.4375000   1.3125000), wk =   0.0234375

     Dense  grid:    74249 G-vectors     FFT dimensions: (  60,  60,  60)

     Smooth grid:    26301 G-vectors     FFT dimensions: (  45,  45,  45)

     Estimated max dynamical RAM per process >      23.68MB

     Estimated total allocated dynamical RAM >      94.70MB

     Initial potential from superposition of free atoms

     starting charge   25.99991, renormalised to   28.00000
     Starting wfc are   18 randomized atomic wfcs

     total cpu time spent up to now is        1.7 secs

     per-process dynamical memory:    27.5 Mb

     Self-consistent Calculation

     iteration #  1     ecut=    50.00 Ry     beta=0.70
     Davidson diagonalization with overlap
     ethr =  1.00E-02,  avg # of iterations =  2.3

     total cpu time spent up to now is        5.0 secs

     total energy              =    -317.46686251 Ry
     Harris-Foulkes estimate   =    -319.56153721 Ry
     estimated scf accuracy    <       2.55100845 Ry

     iteration #  2     ecut=    50.00 Ry     beta=0.70
     Davidson diagonalization with overlap
     ethr =  9.11E-03,  avg # of iterations =  3.0

     total cpu time spent up to now is        8.8 secs

     total energy              =    -318.38688536 Ry
     Harris-Foulkes estimate   =    -318.70786487 Ry
     estimated scf accuracy    <       0.47611383 Ry

     iteration #  3     ecut=    50.00 Ry     beta=0.70
     Davidson diagonalization with overlap
     ethr =  1.70E-03,  avg # of iterations =  2.0

     total cpu time spent up to now is       12.1 secs

     total energy              =    -318.48307709 Ry
     Harris-Foulkes estimate   =    -318.48462602 Ry
     estimated scf accuracy    <       0.00285298 Ry

     iteration #  4     ecut=    50.00 Ry     beta=0.70
     Davidson diagonalization with overlap
     ethr =  1.02E-05,  avg # of iterations =  2.9

     total cpu time spent up to now is       15.5 secs

     total energy              =    -318.48393500 Ry
     Harris-Foulkes estimate   =    -318.48404685 Ry
     estimated scf accuracy    <       0.00016499 Ry

     iteration #  5     ecut=    50.00 Ry     beta=0.70
     Davidson diagonalization with overlap
     ethr =  5.89E-07,  avg # of iterations =  3.0

     total cpu time spent up to now is       19.1 secs

     total energy              =    -318.48398732 Ry
     Harris-Foulkes estimate   =    -318.48398819 Ry
     estimated scf accuracy    <       0.00000168 Ry

     iteration #  6     ecut=    50.00 Ry     beta=0.70
     Davidson diagonalization with overlap
     ethr =  5.99E-09,  avg # of iterations =  4.0

     total cpu time spent up to now is       22.8 secs

     total energy              =    -318.48398813 Ry
     Harris-Foulkes estimate   =    -318.48398816 Ry
     estimated scf accuracy    <       0.00000005 Ry

     iteration #  7     ecut=    50.00 Ry     beta=0.70
     Davidson diagonalization with overlap
     ethr =  1.74E-10,  avg # of iterations =  3.5

     total cpu time spent up to now is       26.5 secs

     End of self-consistent calculation

          k =-0.0625 0.0625 0.0625 (  3287 PWs)   bands (ev):

   -15.6213 -15.6213 -15.6188 -15.5796 -15.5796 -15.4001 -15.4001 -15.3901
   -15.3836 -15.3836  -3.7028   3.7768   5.8459   5.8459

          k =-0.1875 0.1875-0.0625 (  3289 PWs)   bands (ev):

   -15.6300 -15.6268 -15.6163 -15.5715 -15.5663 -15.4175 -15.4102 -15.3896
   -15.3784 -15.3703  -3.5371   2.8699   5.2598   5.7229

          k =-0.3125 0.3125-0.1875 (  3293 PWs)   bands (ev):

   -15.6385 -15.6368 -15.6081 -15.5580 -15.5510 -15.4316 -15.4230 -15.4007
   -15.3654 -15.3611  -3.1454   1.5499   4.8008   5.3532

          k =-0.4375 0.4375-0.3125 (  3279 PWs)   bands (ev):

   -15.6436 -15.6429 -15.5992 -15.5478 -15.5423 -15.4379 -15.4316 -15.4113
   -15.3569 -15.3563  -2.6368   0.4281   4.5632   5.0367

          k = 0.4375-0.4375 0.5625 (  3279 PWs)   bands (ev):

   -15.6459 -15.6432 -15.5967 -15.5430 -15.5425 -15.4374 -15.4358 -15.4138
   -15.3567 -15.3538  -2.4171   0.0479   4.5530   4.8851

          k = 0.3125-0.3125 0.4375 (  3288 PWs)   bands (ev):

   -15.6435 -15.6397 -15.6028 -15.5504 -15.5440 -15.4389 -15.4286 -15.4066
   -15.3610 -15.3562  -2.8034   0.7518   4.7579   4.9326

          k = 0.1875-0.1875 0.3125 (  3297 PWs)   bands (ev):

   -15.6365 -15.6330 -15.6119 -15.5627 -15.5546 -15.4309 -15.4167 -15.3958
   -15.3696 -15.3639  -3.2970   1.9901   5.1402   5.1755

          k = 0.0625-0.0625 0.1875 (  3281 PWs)   bands (ev):

   -15.6255 -15.6237 -15.6190 -15.5764 -15.5702 -15.4154 -15.4012 -15.3877
   -15.3817 -15.3756  -3.6192   3.2768   5.5524   5.5692

          k =-0.0625 0.3125 0.0625 (  3287 PWs)   bands (ev):

   -15.6305 -15.6284 -15.6201 -15.5698 -15.5553 -15.4350 -15.4063 -15.3832
   -15.3769 -15.3705  -3.4528   2.5984   5.1349   5.1559

          k =-0.1875 0.4375-0.0625 (  3280 PWs)   bands (ev):

   -15.6402 -15.6370 -15.6103 -15.5578 -15.5373 -15.4535 -15.4187 -15.3920
   -15.3658 -15.3598  -3.1311   1.6483   4.4609   4.9324

          k =-0.3125 0.5625-0.1875 (  3281 PWs)   bands (ev):

   -15.6512 -15.6437 -15.5933 -15.5443 -15.5269 -15.4617 -15.4330 -15.4110
   -15.3564 -15.3483  -2.6355   0.5821   3.9845   4.6723

          k = 0.5625-0.3125 0.6875 (  3270 PWs)   bands (ev):

   -15.6559 -15.6471 -15.5813 -15.5339 -15.5286 -15.4554 -15.4455 -15.4250
   -15.3517 -15.3428  -2.2417  -0.0689   3.7404   4.6151

          k = 0.4375-0.1875 0.5625 (  3276 PWs)   bands (ev):

   -15.6534 -15.6467 -15.5841 -15.5425 -15.5280 -15.4551 -15.4362 -15.4246
   -15.3519 -15.3462  -2.4722   0.2954   3.7567   4.7944

          k = 0.3125-0.0625 0.4375 (  3289 PWs)   bands (ev):

   -15.6440 -15.6423 -15.5995 -15.5547 -15.5371 -15.4491 -15.4250 -15.4060
   -15.3594 -15.3556  -2.9847   1.2818   4.0998   5.1306

          k = 0.1875 0.0625 0.3125 (  3290 PWs)   bands (ev):

   -15.6350 -15.6315 -15.6137 -15.5661 -15.5544 -15.4330 -15.4131 -15.3905
   -15.3734 -15.3649  -3.3737   2.2867   4.8551   5.3840

          k =-0.0625 0.5625 0.0625 (  3284 PWs)   bands (ev):

   -15.6424 -15.6405 -15.6127 -15.5468 -15.5150 -15.4805 -15.4283 -15.3854
   -15.3610 -15.3587  -2.8791   1.1511   4.3557   4.4334

          k =-0.1875 0.6875-0.0625 (  3287 PWs)   bands (ev):

   -15.6515 -15.6479 -15.5944 -15.5314 -15.4999 -15.4963 -15.4439 -15.4051
   -15.3515 -15.3475  -2.4224   0.3499   3.8592   4.2022

          k = 0.6875-0.1875 0.8125 (  3276 PWs)   bands (ev):

   -15.6616 -15.6512 -15.5715 -15.5162 -15.5024 -15.4917 -15.4606 -15.4288
   -15.3466 -15.3362  -1.9215  -0.3485   3.3507   4.1745

          k = 0.5625-0.0625 0.6875 (  3268 PWs)   bands (ev):

   -15.6634 -15.6517 -15.5654 -15.5195 -15.5065 -15.4781 -15.4653 -15.4361
   -15.3456 -15.3346  -1.9814  -0.2723   3.1677   4.3958

          k = 0.4375 0.0625 0.5625 (  3280 PWs)   bands (ev):

   -15.6557 -15.6485 -15.5792 -15.5420 -15.5209 -15.4628 -15.4368 -15.4296
   -15.3494 -15.3442  -2.4936   0.4105   3.4969   4.7746

          k = 0.3125 0.1875 0.4375 (  3287 PWs)   bands (ev):

   -15.6443 -15.6401 -15.6016 -15.5530 -15.5405 -15.4446 -15.4258 -15.4055
   -15.3610 -15.3555  -2.9227   1.0677   4.3926   5.0474

          k =-0.0625 0.8125 0.0625 (  3287 PWs)   bands (ev):

   -15.6515 -15.6500 -15.5891 -15.5288 -15.5146 -15.4699 -15.4601 -15.4100
   -15.3480 -15.3464  -2.0067  -0.2371   3.8852   3.9925

          k = 0.8125-0.0625 0.9375 (  3284 PWs)   bands (ev):

   -15.6575 -15.6534 -15.5652 -15.5424 -15.4968 -15.4781 -15.4562 -15.4341
   -15.3436 -15.3398  -1.4584  -0.8766   3.5898   3.8646

          k = 0.6875 0.0625 0.8125 (  3269 PWs)   bands (ev):

   -15.6639 -15.6529 -15.5621 -15.5125 -15.5005 -15.4831 -15.4760 -15.4372
   -15.3440 -15.3333  -1.5868  -0.7210   3.2060   4.0749

          k = 0.5625 0.1875 0.6875 (  3270 PWs)   bands (ev):

   -15.6609 -15.6499 -15.5716 -15.5256 -15.5174 -15.4678 -15.4564 -15.4318
   -15.3480 -15.3373  -2.0761  -0.2075   3.3757   4.4695

          k = 0.4375 0.3125 0.5625 (  3274 PWs)   bands (ev):

   -15.6496 -15.6443 -15.5913 -15.5428 -15.5366 -15.4448 -15.4361 -15.4180
   -15.3551 -15.3498  -2.4406   0.1463   4.1747   4.8287

          k =-0.0625-0.9375 0.0625 (  3282 PWs)   bands (ev):

   -15.6536 -15.6518 -15.5718 -15.5510 -15.4964 -15.4780 -15.4482 -15.4275
   -15.3452 -15.3435  -1.4717  -0.8774   3.7888   3.9018

          k =-0.1875-0.8125-0.0625 (  3286 PWs)   bands (ev):

   -15.6554 -15.6515 -15.5810 -15.5219 -15.5148 -15.4760 -15.4604 -15.4183
   -15.3463 -15.3426  -1.9672  -0.2796   3.6801   3.9786

          k =-0.3125-0.6875-0.1875 (  3276 PWs)   bands (ev):

   -15.6572 -15.6479 -15.5830 -15.5315 -15.5118 -15.4799 -15.4453 -15.4188
   -15.3512 -15.3413  -2.2947   0.1060   3.6220   4.3743

          k =-0.0625-0.6875 0.0625 (  3285 PWs)   bands (ev):

   -15.6477 -15.6460 -15.6028 -15.5315 -15.5049 -15.4925 -15.4432 -15.3955
   -15.3536 -15.3517  -2.4780   0.4427   4.0759   4.1715

          k =-0.1875-0.5625-0.0625 (  3284 PWs)   bands (ev):

   -15.6461 -15.6428 -15.6043 -15.5461 -15.5180 -15.4757 -15.4296 -15.3961
   -15.3583 -15.3537  -2.8125   0.9967   4.1225   4.5260

          k =-0.0625-0.4375 0.0625 (  3281 PWs)   bands (ev):

   -15.6362 -15.6344 -15.6183 -15.5599 -15.5359 -15.4570 -15.4155 -15.3810
   -15.3693 -15.3655  -3.2053   1.8758   4.7151   4.7681

          k =-0.1875 0.1875 0.1875 (  3290 PWs)   bands (ev):

   -15.6307 -15.6307 -15.6142 -15.5656 -15.5656 -15.4164 -15.4164 -15.3955
   -15.3706 -15.3706  -3.4566   2.5105   5.5016   5.5016

          k =-0.3125 0.3125 0.0625 (  3284 PWs)   bands (ev):

   -15.6391 -15.6369 -15.6064 -15.5608 -15.5490 -15.4346 -15.4218 -15.3982
   -15.3667 -15.3599  -3.2167   1.8138   4.4683   5.4668

          k =-0.4375 0.4375-0.0625 (  3295 PWs)   bands (ev):

   -15.6498 -15.6456 -15.5888 -15.5504 -15.5318 -15.4504 -15.4303 -15.4206
   -15.3526 -15.3518  -2.7701   0.8554   3.7617   5.1012

          k = 0.4375-0.4375 0.8125 (  3273 PWs)   bands (ev):

   -15.6573 -15.6480 -15.5773 -15.5358 -15.5249 -15.4544 -15.4478 -15.4303
   -15.3499 -15.3417  -2.2777   0.0232   3.5383   4.7322

          k = 0.3125-0.3125 0.6875 (  3275 PWs)   bands (ev):

   -15.6572 -15.6464 -15.5833 -15.5319 -15.5224 -15.4669 -15.4454 -15.4204
   -15.3526 -15.3414  -2.2643   0.0025   3.6885   4.5256

          k = 0.1875-0.1875 0.5625 (  3285 PWs)   bands (ev):

   -15.6492 -15.6417 -15.6010 -15.5454 -15.5222 -15.4701 -15.4307 -15.4007
   -15.3595 -15.3503  -2.7521   0.8382   4.1296   4.5374

          k =-0.1875 0.4375 0.1875 (  3288 PWs)   bands (ev):

   -15.6428 -15.6365 -15.6080 -15.5561 -15.5395 -15.4496 -15.4212 -15.3964
   -15.3654 -15.3574  -3.0607   1.4200   4.6071   4.8381

          k =-0.3125 0.5625 0.0625 (  3276 PWs)   bands (ev):

   -15.6503 -15.6464 -15.5916 -15.5448 -15.5211 -15.4684 -15.4323 -15.4123
   -15.3527 -15.3495  -2.6821   0.7324   3.7963   4.6748

          k = 0.5625-0.3125 0.9375 (  3272 PWs)   bands (ev):

   -15.6599 -15.6520 -15.5695 -15.5295 -15.5069 -15.4808 -15.4508 -15.4335
   -15.3456 -15.3385  -2.1643  -0.0352   3.3295   4.3389

          k = 0.4375-0.1875 0.8125 (  3273 PWs)   bands (ev):

   -15.6625 -15.6532 -15.5643 -15.5194 -15.5037 -15.4857 -15.4614 -15.4365
   -15.3446 -15.3353  -1.9014  -0.3788   3.2899   4.1533

          k = 0.3125-0.0625 0.6875 (  3278 PWs)   bands (ev):

   -15.6556 -15.6508 -15.5812 -15.5314 -15.5034 -15.4893 -15.4455 -15.4200
   -15.3476 -15.3432  -2.3153   0.1815   3.5782   4.2566

          k =-0.1875 0.6875 0.1875 (  3273 PWs)   bands (ev):

   -15.6548 -15.6464 -15.5906 -15.5313 -15.5041 -15.4906 -15.4441 -15.4093
   -15.3529 -15.3437  -2.3776   0.2584   3.7489   4.2977

          k = 0.6875-0.1875 1.0625 (  3279 PWs)   bands (ev):

   -15.6592 -15.6545 -15.5684 -15.5155 -15.5108 -15.4843 -15.4616 -15.4310
   -15.3432 -15.3386  -1.8936  -0.3613   3.4525   3.9331

          k = 0.5625-0.0625 0.9375 (  3274 PWs)   bands (ev):

   -15.6630 -15.6590 -15.5442 -15.5186 -15.4999 -15.4817 -15.4746 -15.4526
   -15.3382 -15.3342  -1.4246  -0.8760   3.3069   3.6556

          k = 0.4375 0.0625 0.8125 (  3278 PWs)   bands (ev):

   -15.6625 -15.6562 -15.5576 -15.5153 -15.5007 -15.4904 -15.4659 -15.4418
   -15.3415 -15.3352  -1.7961  -0.4729   3.2707   3.9372

          k =-0.1875-1.0625 0.1875 (  3275 PWs)   bands (ev):

   -15.6614 -15.6518 -15.5661 -15.5291 -15.4978 -15.4773 -15.4683 -15.4334
   -15.3451 -15.3358  -1.5052  -0.8197   3.3515   4.0479

          k =-0.3125-0.9375 0.0625 (  3282 PWs)   bands (ev):

   -15.6611 -15.6568 -15.5541 -15.5296 -15.4980 -15.4792 -15.4671 -15.4444
   -15.3405 -15.3363  -1.4389  -0.8760   3.4086   3.7459

          k =-0.1875-0.8125 0.1875 (  3275 PWs)   bands (ev):

   -15.6591 -15.6499 -15.5781 -15.5151 -15.5131 -15.4834 -15.4603 -15.4213
   -15.3478 -15.3387  -1.9488  -0.3075   3.4856   4.1322

          k =-0.3125 0.3125 0.3125 (  3284 PWs)   bands (ev):

   -15.6384 -15.6384 -15.6075 -15.5523 -15.5523 -15.4284 -15.4284 -15.4033
   -15.3617 -15.3617  -3.0056   1.1626   5.1598   5.1598

          k =-0.4375 0.4375 0.1875 (  3278 PWs)   bands (ev):

   -15.6473 -15.6443 -15.5932 -15.5494 -15.5363 -15.4449 -15.4301 -15.4167
   -15.3539 -15.3538  -2.7231   0.6785   4.0687   5.0807

          k = 0.4375-0.4375 1.0625 (  3267 PWs)   bands (ev):

   -15.6604 -15.6494 -15.5714 -15.5329 -15.5161 -15.4632 -15.4534 -15.4338
   -15.3478 -15.3384  -2.2558   0.0686   3.2781   4.6945

          k = 0.3125-0.3125 0.9375 (  3263 PWs)   bands (ev):

   -15.6649 -15.6513 -15.5654 -15.5039 -15.5025 -15.4913 -15.4727 -15.4347
   -15.3456 -15.3327  -1.7819  -0.5074   3.1223   4.3239

          k =-0.3125 0.5625 0.3125 (  3290 PWs)   bands (ev):

   -15.6506 -15.6429 -15.5941 -15.5435 -15.5338 -15.4523 -15.4346 -15.4124
   -15.3576 -15.3489  -2.5499   0.3596   4.1872   4.7117

          k = 0.5625-0.3125 1.1875 (  3276 PWs)   bands (ev):

   -15.6588 -15.6499 -15.5748 -15.5315 -15.5165 -15.4700 -15.4482 -15.4297
   -15.3485 -15.3397  -2.1875  -0.0627   3.4899   4.4363

          k = 0.4375-0.1875 1.0625 (  3273 PWs)   bands (ev):

   -15.6643 -15.6552 -15.5564 -15.5091 -15.4985 -15.4917 -15.4730 -15.4426
   -15.3421 -15.3332  -1.6887  -0.5991   3.1800   4.0029

          k =-0.3125-1.1875 0.3125 (  3269 PWs)   bands (ev):

   -15.6621 -15.6495 -15.5726 -15.5176 -15.5114 -15.4808 -15.4594 -15.4288
   -15.3482 -15.3358  -1.9827  -0.3034   3.3195   4.3928

          k =-0.4375 0.4375 0.4375 (  3272 PWs)   bands (ev):

   -15.6421 -15.6421 -15.6015 -15.5453 -15.5453 -15.4339 -15.4339 -15.4093
   -15.3577 -15.3577  -2.5271   0.1992   4.9690   4.9690

          k = 0.4375-0.4375 1.3125 (  3272 PWs)   bands (ev):

   -15.6520 -15.6455 -15.5870 -15.5392 -15.5353 -15.4436 -15.4418 -15.4226
   -15.3534 -15.3473  -2.3301  -0.0041   3.9928   4.8003

     highest occupied level (ev):     5.8459

!    total energy              =    -318.48398816 Ry
     Harris-Foulkes estimate   =    -318.48398816 Ry
     estimated scf accuracy    <          2.9E-09 Ry

     The total energy is the sum of the following terms:

     one-electron contribution =    -171.22937576 Ry
     hartree contribution      =     101.05316049 Ry
     xc contribution           =     -85.87509341 Ry
     ewald contribution        =    -162.43267948 Ry

     convergence has been achieved in   7 iterations

     Writing output data file sn.alpha.13.0.save

     init_run     :      1.60s CPU      1.65s WALL (       1 calls)
     electrons    :     24.08s CPU     24.84s WALL (       1 calls)

     Called by init_run:
     wfcinit      :      1.08s CPU      1.11s WALL (       1 calls)
     potinit      :      0.06s CPU      0.06s WALL (       1 calls)

     Called by electrons:
     c_bands      :     19.47s CPU     19.93s WALL (       7 calls)
     sum_band     :      3.70s CPU      3.89s WALL (       7 calls)
     v_of_rho     :      0.36s CPU      0.38s WALL (       8 calls)
     newd         :      0.59s CPU      0.67s WALL (       8 calls)
     mix_rho      :      0.03s CPU      0.03s WALL (       7 calls)

     Called by c_bands:
     init_us_2    :      0.41s CPU      0.42s WALL (     900 calls)
     cegterg      :     18.69s CPU     19.14s WALL (     420 calls)

     Called by sum_band:
     sum_band:bec :      0.00s CPU      0.00s WALL (     420 calls)
     addusdens    :      0.61s CPU      0.72s WALL (       7 calls)

     Called by *egterg:
     h_psi        :     17.03s CPU     17.46s WALL (    1725 calls)
     s_psi        :      0.23s CPU      0.23s WALL (    1725 calls)
     g_psi        :      0.08s CPU      0.09s WALL (    1245 calls)
     cdiaghg      :      0.73s CPU      0.74s WALL (    1665 calls)

     Called by h_psi:
     h_psi:pot    :     16.92s CPU     17.35s WALL (    1725 calls)
     h_psi:calbec :      0.52s CPU      0.53s WALL (    1725 calls)
     vloc_psi     :     16.11s CPU     16.51s WALL (    1725 calls)
     add_vuspsi   :      0.29s CPU      0.29s WALL (    1725 calls)

     General routines
     calbec       :      0.64s CPU      0.66s WALL (    2145 calls)
     fft          :      0.16s CPU      0.17s WALL (     124 calls)
     ffts         :      0.01s CPU      0.01s WALL (      15 calls)
     fftw         :     15.79s CPU     16.23s WALL (   45498 calls)
     interpolate  :      0.04s CPU      0.04s WALL (      15 calls)
     davcio       :      0.00s CPU      0.00s WALL (      60 calls)

     Parallel routines
     fft_scatter  :      2.02s CPU      2.00s WALL (   45637 calls)

     PWSCF        :    25.83s CPU        27.76s WALL


   This run was terminated on:  15:33:39  11Nov2017            

=------------------------------------------------------------------------------=
   JOB DONE.
=------------------------------------------------------------------------------=
