
     Program PWSCF v.6.1 (svn rev. 13369) starts on 13Nov2017 at  2:33:41 

     This program is part of the open-source Quantum ESPRESSO suite
     for quantum simulation of materials; please cite
         "P. Giannozzi et al., J. Phys.:Condens. Matter 21 395502 (2009);
          URL http://www.quantum-espresso.org", 
     in publications or presentations arising from this work. More details at
     http://www.quantum-espresso.org/quote

     Parallel version (MPI), running on     4 processors
     R & G space division:  proc/nbgrp/npool/nimage =       4
     Waiting for input...
     Reading input from standard input

     Current dimensions of program PWSCF are:
     Max number of different atomic species (ntypx) = 10
     Max number of k-points (npk) =  40000
     Max angular momentum in pseudopotentials (lmaxx) =  3

     Subspace diagonalization in iterative solution of the eigenvalue problem:
     a serial algorithm will be used


     Parallelization info
     --------------------
     sticks:   dense  smooth     PW     G-vecs:    dense   smooth      PW
     Min        1239     498    198                17832     4508    1156
     Max        1240     499    199                17833     4509    1157
     Sum        4957    1993    793                71329    18033    4625



     bravais-lattice index     =            0
     lattice parameter (alat)  =      11.3300  a.u.
     unit-cell volume          =     377.9093 (a.u.)^3
     number of atoms/cell      =            2
     number of atomic types    =            1
     number of electrons       =        28.00
     number of Kohn-Sham states=           18
     kinetic-energy cutoff     =      50.0000  Ry
     charge density cutoff     =     500.0000  Ry
     convergence threshold     =      1.0E-08
     mixing beta               =       0.7000
     number of iterations used =            8  plain     mixing
     Exchange-correlation      =  SLA  PW   PBX  PBC ( 1  4  3  4 0 0)

     celldm(1)=  11.330000  celldm(2)=   0.000000  celldm(3)=   0.000000
     celldm(4)=   0.000000  celldm(5)=   0.000000  celldm(6)=   0.000000

     crystal axes: (cart. coord. in units of alat)
               a(1) = (   0.986837   0.000000   0.000000 )  
               a(2) = (   0.000000   0.986837   0.000000 )  
               a(3) = (   0.493419   0.493419   0.266813 )  

     reciprocal axes: (cart. coord. in units 2 pi/alat)
               b(1) = (  1.013339  0.000000 -1.873974 )  
               b(2) = (  0.000000  1.013339 -1.873974 )  
               b(3) = (  0.000000  0.000000  3.747943 )  


     PseudoPot. # 1 for Sn read from file:
     /home/s1333534/quantum_espresso/qe-6.1/pseudo/sn_pbe_v1.4.uspp.F.UPF
     MD5 check sum: 469debedee59599fedebd795477fea03
     Pseudo is Ultrasoft + core correction, Zval = 14.0
     Generated by new atomic code, or converted to UPF format
     Using radial grid of  891 points,  6 beta functions with: 
                l(1) =   0
                l(2) =   0
                l(3) =   1
                l(4) =   1
                l(5) =   2
                l(6) =   2
     Q(r) pseudized with  8 coefficients,  rinner =    1.350   1.350   1.350
                                                       1.350   1.350

     atomic species   valence    mass     pseudopotential
        Sn            14.00   118.71000     Sn( 1.00)

     No symmetry found



   Cartesian axes

     site n.     atom                  positions (alat units)
         1           Sn  tau(   1) = (   1.0725850   1.3160481   0.0533919  )
         2           Sn  tau(   2) = (   0.5198369   0.2763739   0.0177973  )

     number of k points=   448  Marzari-Vanderbilt smearing, width (Ry)=  0.0200

     Number of k-points >= 100: set verbosity='high' to print them.

     Dense  grid:    71329 G-vectors     FFT dimensions: (  80,  80,  64)

     Smooth grid:    18033 G-vectors     FFT dimensions: (  54,  54,  40)

     Estimated max dynamical RAM per process >      85.34MB

     Estimated total allocated dynamical RAM >     341.37MB

     Initial potential from superposition of free atoms

     starting charge   25.99991, renormalised to   28.00000
     Starting wfc are   18 randomized atomic wfcs

     total cpu time spent up to now is       13.8 secs

     per-process dynamical memory:    92.3 Mb

     Self-consistent Calculation

     iteration #  1     ecut=    50.00 Ry     beta=0.70
     Davidson diagonalization with overlap
     ethr =  1.00E-02,  avg # of iterations =  3.9

     total cpu time spent up to now is       65.6 secs

     total energy              =    -317.50031179 Ry
     Harris-Foulkes estimate   =    -319.47664614 Ry
     estimated scf accuracy    <       2.41973232 Ry

     iteration #  2     ecut=    50.00 Ry     beta=0.70
     Davidson diagonalization with overlap
     ethr =  8.64E-03,  avg # of iterations =  2.6

     total cpu time spent up to now is      110.8 secs

     total energy              =    -318.35619652 Ry
     Harris-Foulkes estimate   =    -318.65700993 Ry
     estimated scf accuracy    <       0.44243900 Ry

     iteration #  3     ecut=    50.00 Ry     beta=0.70
     Davidson diagonalization with overlap
     ethr =  1.58E-03,  avg # of iterations =  2.0

     total cpu time spent up to now is      154.8 secs

     total energy              =    -318.44792215 Ry
     Harris-Foulkes estimate   =    -318.44965864 Ry
     estimated scf accuracy    <       0.00293282 Ry

     iteration #  4     ecut=    50.00 Ry     beta=0.70
     Davidson diagonalization with overlap
     ethr =  1.05E-05,  avg # of iterations =  3.6

     total cpu time spent up to now is      204.2 secs

     total energy              =    -318.44854148 Ry
     Harris-Foulkes estimate   =    -318.44870823 Ry
     estimated scf accuracy    <       0.00033112 Ry

     iteration #  5     ecut=    50.00 Ry     beta=0.70
     Davidson diagonalization with overlap
     ethr =  1.18E-06,  avg # of iterations =  2.7

     total cpu time spent up to now is      242.5 secs

     total energy              =    -318.44859410 Ry
     Harris-Foulkes estimate   =    -318.44860458 Ry
     estimated scf accuracy    <       0.00001795 Ry

     iteration #  6     ecut=    50.00 Ry     beta=0.70
     Davidson diagonalization with overlap
     ethr =  6.41E-08,  avg # of iterations =  3.0

     total cpu time spent up to now is      290.7 secs

     total energy              =    -318.44860105 Ry
     Harris-Foulkes estimate   =    -318.44860144 Ry
     estimated scf accuracy    <       0.00000087 Ry

     iteration #  7     ecut=    50.00 Ry     beta=0.70
     Davidson diagonalization with overlap
     ethr =  3.12E-09,  avg # of iterations =  2.7

     total cpu time spent up to now is      332.2 secs

     total energy              =    -318.44860117 Ry
     Harris-Foulkes estimate   =    -318.44860128 Ry
     estimated scf accuracy    <       0.00000018 Ry

     iteration #  8     ecut=    50.00 Ry     beta=0.70
     Davidson diagonalization with overlap
     ethr =  6.26E-10,  avg # of iterations =  3.0

     total cpu time spent up to now is      379.7 secs

     End of self-consistent calculation

     Number of k-points >= 100: set verbosity='high' to print the bands.

     the Fermi energy is    10.2780 ev

!    total energy              =    -318.44860123 Ry
     Harris-Foulkes estimate   =    -318.44860123 Ry
     estimated scf accuracy    <          7.2E-09 Ry

     The total energy is the sum of the following terms:

     one-electron contribution =    -119.39482344 Ry
     hartree contribution      =      79.61954704 Ry
     xc contribution           =     -86.03894900 Ry
     ewald contribution        =    -192.63448495 Ry
     smearing contrib. (-TS)   =       0.00010912 Ry

     convergence has been achieved in   8 iterations

     Writing output data file sn.beta.11.33.save

     init_run     :     13.46s CPU     13.78s WALL (       1 calls)
     electrons    :    358.48s CPU    365.90s WALL (       1 calls)

     Called by init_run:
     wfcinit      :     12.35s CPU     12.63s WALL (       1 calls)
     potinit      :      0.31s CPU      0.32s WALL (       1 calls)

     Called by electrons:
     c_bands      :    290.36s CPU    296.52s WALL (       8 calls)
     sum_band     :     66.28s CPU     67.37s WALL (       8 calls)
     v_of_rho     :      0.94s CPU      0.99s WALL (       9 calls)
     newd         :      0.92s CPU      0.98s WALL (       9 calls)
     mix_rho      :      0.09s CPU      0.10s WALL (       8 calls)

     Called by c_bands:
     init_us_2    :      2.42s CPU      2.47s WALL (    7616 calls)
     cegterg      :    285.65s CPU    291.71s WALL (    3584 calls)

     Called by sum_band:
     sum_band:bec :      0.04s CPU      0.05s WALL (    3584 calls)
     addusdens    :      1.02s CPU      1.15s WALL (       8 calls)

     Called by *egterg:
     h_psi        :    273.96s CPU    279.93s WALL (   14549 calls)
     s_psi        :      1.48s CPU      1.49s WALL (   14549 calls)
     g_psi        :      0.53s CPU      0.54s WALL (   10517 calls)
     cdiaghg      :      9.06s CPU      9.18s WALL (   14101 calls)

     Called by h_psi:
     h_psi:pot    :    273.17s CPU    279.13s WALL (   14549 calls)
     h_psi:calbec :      3.69s CPU      3.72s WALL (   14549 calls)
     vloc_psi     :    267.55s CPU    273.43s WALL (   14549 calls)
     add_vuspsi   :      1.92s CPU      1.93s WALL (   14549 calls)

     General routines
     calbec       :      4.88s CPU      4.90s WALL (   18133 calls)
     fft          :      0.64s CPU      0.68s WALL (     140 calls)
     ffts         :      0.01s CPU      0.01s WALL (      17 calls)
     fftw         :    204.78s CPU    209.40s WALL (  448226 calls)
     interpolate  :      0.12s CPU      0.12s WALL (      17 calls)
     davcio       :      0.01s CPU      0.02s WALL (     448 calls)

     Parallel routines
     fft_scatter  :     37.73s CPU     38.83s WALL (  448383 calls)

     PWSCF        :  6m12.57s CPU     6m27.72s WALL


   This run was terminated on:   2:40: 9  13Nov2017            

=------------------------------------------------------------------------------=
   JOB DONE.
=------------------------------------------------------------------------------=
