
     Program PWSCF v.6.1 (svn rev. 13369) starts on 11Nov2017 at 15:30:22 

     This program is part of the open-source Quantum ESPRESSO suite
     for quantum simulation of materials; please cite
         "P. Giannozzi et al., J. Phys.:Condens. Matter 21 395502 (2009);
          URL http://www.quantum-espresso.org", 
     in publications or presentations arising from this work. More details at
     http://www.quantum-espresso.org/quote

     Parallel version (MPI), running on     4 processors
     R & G space division:  proc/nbgrp/npool/nimage =       4
     Waiting for input...
     Reading input from standard input
     Message from routine read_cards :
     DEPRECATED: no units specified in ATOMIC_POSITIONS card
     Message from routine read_cards :
     ATOMIC_POSITIONS: units set to alat

     Current dimensions of program PWSCF are:
     Max number of different atomic species (ntypx) = 10
     Max number of k-points (npk) =  40000
     Max angular momentum in pseudopotentials (lmaxx) =  3

     Subspace diagonalization in iterative solution of the eigenvalue problem:
     a serial algorithm will be used


     Parallelization info
     --------------------
     sticks:   dense  smooth     PW     G-vecs:    dense   smooth      PW
     Min         344     169     52                 8455     2983     526
     Max         346     172     53                 8456     2984     529
     Sum        1381     685    211                33823    11935    2109



     bravais-lattice index     =            2
     lattice parameter (alat)  =      10.0000  a.u.
     unit-cell volume          =     250.0000 (a.u.)^3
     number of atoms/cell      =            2
     number of atomic types    =            1
     number of electrons       =        28.00
     number of Kohn-Sham states=           14
     kinetic-energy cutoff     =      50.0000  Ry
     charge density cutoff     =     400.0000  Ry
     convergence threshold     =      1.0E-08
     mixing beta               =       0.7000
     number of iterations used =            8  plain     mixing
     Exchange-correlation      =  SLA  PW   PBX  PBC ( 1  4  3  4 0 0)

     celldm(1)=  10.000000  celldm(2)=   0.000000  celldm(3)=   0.000000
     celldm(4)=   0.000000  celldm(5)=   0.000000  celldm(6)=   0.000000

     crystal axes: (cart. coord. in units of alat)
               a(1) = (  -0.500000   0.000000   0.500000 )  
               a(2) = (   0.000000   0.500000   0.500000 )  
               a(3) = (  -0.500000   0.500000   0.000000 )  

     reciprocal axes: (cart. coord. in units 2 pi/alat)
               b(1) = ( -1.000000 -1.000000  1.000000 )  
               b(2) = (  1.000000  1.000000  1.000000 )  
               b(3) = ( -1.000000  1.000000 -1.000000 )  


     PseudoPot. # 1 for Sn read from file:
     /home/s1333534/quantum_espresso/qe-6.1/pseudo/sn_pbe_v1.4.uspp.F.UPF
     MD5 check sum: 469debedee59599fedebd795477fea03
     Pseudo is Ultrasoft + core correction, Zval = 14.0
     Generated by new atomic code, or converted to UPF format
     Using radial grid of  891 points,  6 beta functions with: 
                l(1) =   0
                l(2) =   0
                l(3) =   1
                l(4) =   1
                l(5) =   2
                l(6) =   2
     Q(r) pseudized with  8 coefficients,  rinner =    1.350   1.350   1.350
                                                       1.350   1.350

     atomic species   valence    mass     pseudopotential
        Sn            14.00   118.71000     Sn( 1.00)

     24 Sym. Ops. (no inversion) found
          (note: 24 additional sym.ops. were found but ignored
           their fractional translations are incommensurate with FFT grid)


   Cartesian axes

     site n.     atom                  positions (alat units)
         1           Sn  tau(   1) = (   0.0000000   0.0000000   0.0000000  )
         2           Sn  tau(   2) = (   0.2500000   0.2500000   0.2500000  )

     number of k points=    60
                       cart. coord. in units 2pi/alat
        k(    1) = (  -0.0625000   0.0625000   0.0625000), wk =   0.0078125
        k(    2) = (  -0.1875000   0.1875000  -0.0625000), wk =   0.0234375
        k(    3) = (  -0.3125000   0.3125000  -0.1875000), wk =   0.0234375
        k(    4) = (  -0.4375000   0.4375000  -0.3125000), wk =   0.0234375
        k(    5) = (   0.4375000  -0.4375000   0.5625000), wk =   0.0234375
        k(    6) = (   0.3125000  -0.3125000   0.4375000), wk =   0.0234375
        k(    7) = (   0.1875000  -0.1875000   0.3125000), wk =   0.0234375
        k(    8) = (   0.0625000  -0.0625000   0.1875000), wk =   0.0234375
        k(    9) = (  -0.0625000   0.3125000   0.0625000), wk =   0.0234375
        k(   10) = (  -0.1875000   0.4375000  -0.0625000), wk =   0.0468750
        k(   11) = (  -0.3125000   0.5625000  -0.1875000), wk =   0.0468750
        k(   12) = (   0.5625000  -0.3125000   0.6875000), wk =   0.0468750
        k(   13) = (   0.4375000  -0.1875000   0.5625000), wk =   0.0468750
        k(   14) = (   0.3125000  -0.0625000   0.4375000), wk =   0.0468750
        k(   15) = (   0.1875000   0.0625000   0.3125000), wk =   0.0468750
        k(   16) = (  -0.0625000   0.5625000   0.0625000), wk =   0.0234375
        k(   17) = (  -0.1875000   0.6875000  -0.0625000), wk =   0.0468750
        k(   18) = (   0.6875000  -0.1875000   0.8125000), wk =   0.0468750
        k(   19) = (   0.5625000  -0.0625000   0.6875000), wk =   0.0468750
        k(   20) = (   0.4375000   0.0625000   0.5625000), wk =   0.0468750
        k(   21) = (   0.3125000   0.1875000   0.4375000), wk =   0.0468750
        k(   22) = (  -0.0625000   0.8125000   0.0625000), wk =   0.0234375
        k(   23) = (   0.8125000  -0.0625000   0.9375000), wk =   0.0468750
        k(   24) = (   0.6875000   0.0625000   0.8125000), wk =   0.0468750
        k(   25) = (   0.5625000   0.1875000   0.6875000), wk =   0.0468750
        k(   26) = (   0.4375000   0.3125000   0.5625000), wk =   0.0468750
        k(   27) = (  -0.0625000  -0.9375000   0.0625000), wk =   0.0234375
        k(   28) = (  -0.1875000  -0.8125000  -0.0625000), wk =   0.0468750
        k(   29) = (  -0.3125000  -0.6875000  -0.1875000), wk =   0.0468750
        k(   30) = (  -0.0625000  -0.6875000   0.0625000), wk =   0.0234375
        k(   31) = (  -0.1875000  -0.5625000  -0.0625000), wk =   0.0468750
        k(   32) = (  -0.0625000  -0.4375000   0.0625000), wk =   0.0234375
        k(   33) = (  -0.1875000   0.1875000   0.1875000), wk =   0.0078125
        k(   34) = (  -0.3125000   0.3125000   0.0625000), wk =   0.0234375
        k(   35) = (  -0.4375000   0.4375000  -0.0625000), wk =   0.0234375
        k(   36) = (   0.4375000  -0.4375000   0.8125000), wk =   0.0234375
        k(   37) = (   0.3125000  -0.3125000   0.6875000), wk =   0.0234375
        k(   38) = (   0.1875000  -0.1875000   0.5625000), wk =   0.0234375
        k(   39) = (  -0.1875000   0.4375000   0.1875000), wk =   0.0234375
        k(   40) = (  -0.3125000   0.5625000   0.0625000), wk =   0.0468750
        k(   41) = (   0.5625000  -0.3125000   0.9375000), wk =   0.0468750
        k(   42) = (   0.4375000  -0.1875000   0.8125000), wk =   0.0468750
        k(   43) = (   0.3125000  -0.0625000   0.6875000), wk =   0.0468750
        k(   44) = (  -0.1875000   0.6875000   0.1875000), wk =   0.0234375
        k(   45) = (   0.6875000  -0.1875000   1.0625000), wk =   0.0468750
        k(   46) = (   0.5625000  -0.0625000   0.9375000), wk =   0.0468750
        k(   47) = (   0.4375000   0.0625000   0.8125000), wk =   0.0468750
        k(   48) = (  -0.1875000  -1.0625000   0.1875000), wk =   0.0234375
        k(   49) = (  -0.3125000  -0.9375000   0.0625000), wk =   0.0468750
        k(   50) = (  -0.1875000  -0.8125000   0.1875000), wk =   0.0234375
        k(   51) = (  -0.3125000   0.3125000   0.3125000), wk =   0.0078125
        k(   52) = (  -0.4375000   0.4375000   0.1875000), wk =   0.0234375
        k(   53) = (   0.4375000  -0.4375000   1.0625000), wk =   0.0234375
        k(   54) = (   0.3125000  -0.3125000   0.9375000), wk =   0.0234375
        k(   55) = (  -0.3125000   0.5625000   0.3125000), wk =   0.0234375
        k(   56) = (   0.5625000  -0.3125000   1.1875000), wk =   0.0468750
        k(   57) = (   0.4375000  -0.1875000   1.0625000), wk =   0.0468750
        k(   58) = (  -0.3125000  -1.1875000   0.3125000), wk =   0.0234375
        k(   59) = (  -0.4375000   0.4375000   0.4375000), wk =   0.0078125
        k(   60) = (   0.4375000  -0.4375000   1.3125000), wk =   0.0234375

     Dense  grid:    33823 G-vectors     FFT dimensions: (  45,  45,  45)

     Smooth grid:    11935 G-vectors     FFT dimensions: (  32,  32,  32)

     Estimated max dynamical RAM per process >      10.82MB

     Estimated total allocated dynamical RAM >      43.28MB

     Initial potential from superposition of free atoms

     starting charge   25.99991, renormalised to   28.00000
     Starting wfc are   18 randomized atomic wfcs

     total cpu time spent up to now is        0.6 secs

     per-process dynamical memory:    16.1 Mb

     Self-consistent Calculation

     iteration #  1     ecut=    50.00 Ry     beta=0.70
     Davidson diagonalization with overlap
     ethr =  1.00E-02,  avg # of iterations =  3.0

     total cpu time spent up to now is        1.5 secs

     total energy              =    -317.05624708 Ry
     Harris-Foulkes estimate   =    -318.84950959 Ry
     estimated scf accuracy    <       2.20343774 Ry

     iteration #  2     ecut=    50.00 Ry     beta=0.70
     Davidson diagonalization with overlap
     ethr =  7.87E-03,  avg # of iterations =  3.0

     total cpu time spent up to now is        2.6 secs

     total energy              =    -317.84852695 Ry
     Harris-Foulkes estimate   =    -318.13318033 Ry
     estimated scf accuracy    <       0.42871674 Ry

     iteration #  3     ecut=    50.00 Ry     beta=0.70
     Davidson diagonalization with overlap
     ethr =  1.53E-03,  avg # of iterations =  2.0

     total cpu time spent up to now is        3.5 secs

     total energy              =    -317.93524543 Ry
     Harris-Foulkes estimate   =    -317.93630871 Ry
     estimated scf accuracy    <       0.00203202 Ry

     iteration #  4     ecut=    50.00 Ry     beta=0.70
     Davidson diagonalization with overlap
     ethr =  7.26E-06,  avg # of iterations =  3.0

     total cpu time spent up to now is        4.5 secs

     total energy              =    -317.93600650 Ry
     Harris-Foulkes estimate   =    -317.93611592 Ry
     estimated scf accuracy    <       0.00015837 Ry

     iteration #  5     ecut=    50.00 Ry     beta=0.70
     Davidson diagonalization with overlap
     ethr =  5.66E-07,  avg # of iterations =  2.8

     total cpu time spent up to now is        5.4 secs

     total energy              =    -317.93605595 Ry
     Harris-Foulkes estimate   =    -317.93606089 Ry
     estimated scf accuracy    <       0.00000758 Ry

     iteration #  6     ecut=    50.00 Ry     beta=0.70
     Davidson diagonalization with overlap
     ethr =  2.71E-08,  avg # of iterations =  2.2

     total cpu time spent up to now is        6.2 secs

     total energy              =    -317.93605772 Ry
     Harris-Foulkes estimate   =    -317.93605774 Ry
     estimated scf accuracy    <       0.00000003 Ry

     iteration #  7     ecut=    50.00 Ry     beta=0.70
     Davidson diagonalization with overlap
     ethr =  1.07E-10,  avg # of iterations =  4.0

     total cpu time spent up to now is        7.4 secs

     End of self-consistent calculation

          k =-0.0625 0.0625 0.0625 (  1462 PWs)   bands (ev):

    -5.8902  -5.8902  -5.8667  -5.6668  -5.6668  -4.3629  -4.3629  -4.3591
    -4.0709  -4.0709   2.4671  18.1980  18.9951  18.9951

          k =-0.1875 0.1875-0.0625 (  1471 PWs)   bands (ev):

    -5.9705  -5.9191  -5.8643  -5.5997  -5.5477  -4.4539  -4.4409  -4.2978
    -4.0944  -4.0084   2.8398  15.8879  17.1857  18.7359

          k =-0.3125 0.3125-0.1875 (  1488 PWs)   bands (ev):

    -6.0224  -5.9835  -5.8209  -5.5072  -5.4356  -4.5211  -4.5140  -4.3394
    -4.0618  -3.9709   3.7628  12.5637  16.3572  17.6608

          k =-0.4375 0.4375-0.3125 (  1491 PWs)   bands (ev):

    -6.0294  -6.0216  -5.7795  -5.4549  -5.4000  -4.5554  -4.5120  -4.4153
    -4.0142  -3.9744   5.1490   9.7358  15.9864  16.8069

          k = 0.4375-0.4375 0.5625 (  1489 PWs)   bands (ev):

    -6.0410  -6.0127  -5.7724  -5.4225  -5.4188  -4.5793  -4.4636  -4.4568
    -4.0050  -3.9781   5.9729   8.5455  16.0963  16.3665

          k = 0.3125-0.3125 0.4375 (  1482 PWs)   bands (ev):

    -6.0415  -5.9936  -5.8026  -5.4626  -5.4023  -4.6011  -4.4404  -4.4117
    -4.0393  -3.9649   4.6528  10.5943  16.4126  16.6518

          k = 0.1875-0.1875 0.3125 (  1484 PWs)   bands (ev):

    -6.0102  -5.9605  -5.8446  -5.5358  -5.4584  -4.5747  -4.3714  -4.3712
    -4.0724  -3.9848   3.3961  13.6337  16.9532  17.5516

          k = 0.0625-0.0625 0.1875 (  1460 PWs)   bands (ev):

    -5.9393  -5.9001  -5.8752  -5.6429  -5.5789  -4.4775  -4.3307  -4.3281
    -4.0998  -4.0273   2.6536  17.0388  17.9189  18.5173

          k =-0.0625 0.3125 0.0625 (  1483 PWs)   bands (ev):

    -5.9821  -5.9220  -5.8978  -5.5908  -5.4527  -4.6440  -4.2794  -4.2720
    -4.1511  -4.0010   3.0260  15.8597  16.8043  17.3183

          k =-0.1875 0.4375-0.0625 (  1492 PWs)   bands (ev):

    -6.0412  -5.9763  -5.8546  -5.4992  -5.3176  -4.7916  -4.3571  -4.2490
    -4.1242  -3.9627   3.7651  13.6953  15.1938  16.6707

          k =-0.3125 0.5625-0.1875 (  1489 PWs)   bands (ev):

    -6.0992  -6.0220  -5.7573  -5.4087  -5.2536  -4.8320  -4.4406  -4.4125
    -4.0164  -3.9064   5.0104  10.8178  14.6179  15.7665

          k = 0.5625-0.3125 0.6875 (  1493 PWs)   bands (ev):

    -6.1246  -6.0470  -5.6825  -5.3442  -5.2875  -4.7678  -4.5528  -4.4924
    -3.9546  -3.8843   6.3096   8.8345  14.2388  15.5116

          k = 0.4375-0.1875 0.5625 (  1491 PWs)   bands (ev):

    -6.1034  -6.0590  -5.6842  -5.4111  -5.2653  -4.7450  -4.5576  -4.4591
    -3.9534  -3.9062   5.4947  10.0053  14.0422  16.0792

          k = 0.3125-0.0625 0.4375 (  1491 PWs)   bands (ev):

    -6.0620  -6.0205  -5.7720  -5.4877  -5.3156  -4.7245  -4.4919  -4.2997
    -4.0651  -3.9270   4.1267  12.7037  14.3326  17.1173

          k = 0.1875 0.0625 0.3125 (  1482 PWs)   bands (ev):

    -6.0093  -5.9430  -5.8590  -5.5619  -5.4492  -4.6104  -4.3978  -4.2472
    -4.1325  -3.9776   3.2113  14.7593  16.1582  17.9652

          k =-0.0625 0.5625 0.0625 (  1492 PWs)   bands (ev):

    -6.0268  -5.9869  -5.9222  -5.4004  -5.1432  -5.0287  -4.3797  -4.1664
    -4.0858  -4.0152   4.3196  13.3645  14.8625  14.9723

          k =-0.1875 0.6875-0.0625 (  1496 PWs)   bands (ev):

    -6.0900  -6.0425  -5.8041  -5.2780  -5.1664  -5.0086  -4.5179  -4.3222
    -3.9804  -3.9231   5.3965  11.5369  13.5725  14.3626

          k = 0.6875-0.1875 0.8125 (  1495 PWs)   bands (ev):

    -6.1687  -6.0705  -5.6551  -5.1778  -5.1391  -4.9938  -4.6768  -4.4988
    -3.9169  -3.8213   6.7926   9.5934  12.4099  14.2993

          k = 0.5625-0.0625 0.6875 (  1498 PWs)   bands (ev):

    -6.1804  -6.0897  -5.5954  -5.2231  -5.0754  -4.9556  -4.7679  -4.5338
    -3.8865  -3.8154   6.7176   9.7300  11.8158  14.9287

          k = 0.4375 0.0625 0.5625 (  1496 PWs)   bands (ev):

    -6.1161  -6.0840  -5.6490  -5.4048  -5.1890  -4.8168  -4.6076  -4.4606
    -3.9211  -3.8939   5.3502  11.0000  12.8325  16.0073

          k = 0.3125 0.1875 0.4375 (  1483 PWs)   bands (ev):

    -6.0562  -6.0014  -5.7909  -5.4777  -5.3567  -4.6744  -4.4621  -4.3460
    -4.0556  -3.9421   4.3049  11.6192  15.5045  16.9330

          k =-0.0625 0.8125 0.0625 (  1498 PWs)   bands (ev):

    -6.0645  -6.0415  -5.8151  -5.4051  -5.1243  -4.8011  -4.6548  -4.3286
    -3.9501  -3.9305   6.3074  10.3677  13.5566  13.8792

          k = 0.8125-0.0625 0.9375 (  1499 PWs)   bands (ev):

    -6.1192  -6.0773  -5.6447  -5.4829  -4.9791  -4.8177  -4.6999  -4.5271
    -3.8974  -3.8607   7.6418   8.9459  12.7051  13.5041

          k = 0.6875 0.0625 0.8125 (  1499 PWs)   bands (ev):

    -6.1846  -6.0842  -5.6059  -5.2307  -5.0274  -4.9222  -4.8189  -4.5502
    -3.8899  -3.7971   7.6533   9.0650  11.6513  14.0608

          k = 0.5625 0.1875 0.6875 (  1497 PWs)   bands (ev):

    -6.1613  -6.0729  -5.6296  -5.2738  -5.1816  -4.8763  -4.6650  -4.5157
    -3.9129  -3.8398   6.6378   9.0921  12.9375  15.1142

          k = 0.4375 0.3125 0.5625 (  1491 PWs)   bands (ev):

    -6.0755  -6.0270  -5.7356  -5.4179  -5.3572  -4.6520  -4.4964  -4.4570
    -3.9910  -3.9382   5.7431   9.1087  15.2953  16.1965

          k =-0.0625-0.9375 0.0625 (  1500 PWs)   bands (ev):

    -6.0748  -6.0539  -5.7097  -5.5665  -4.9689  -4.8098  -4.6331  -4.4695
    -3.9180  -3.9011   7.5363   8.9002  13.3095  13.6538

          k =-0.1875-0.8125-0.0625 (  1495 PWs)   bands (ev):

    -6.1085  -6.0652  -5.7367  -5.3373  -5.1340  -4.8496  -4.6621  -4.4101
    -3.9267  -3.8851   6.4525  10.2738  12.9986  13.7723

          k =-0.3125-0.6875-0.1875 (  1489 PWs)   bands (ev):

    -6.1388  -6.0472  -5.7121  -5.3003  -5.1487  -4.9736  -4.5378  -4.4475
    -3.9636  -3.8622   5.8564  10.1561  13.5488  14.8257

          k =-0.0625-0.6875 0.0625 (  1495 PWs)   bands (ev):

    -6.0465  -6.0182  -5.8880  -5.2705  -5.2232  -4.9731  -4.5088  -4.2169
    -4.0092  -3.9792   5.2309  11.8883  14.0616  14.3232

          k =-0.1875-0.5625-0.0625 (  1493 PWs)   bands (ev):

    -6.0670  -6.0115  -5.8411  -5.4024  -5.1694  -4.9788  -4.3983  -4.2813
    -4.0520  -3.9515   4.4963  12.6560  14.3312  15.3644

          k =-0.0625-0.4375 0.0625 (  1485 PWs)   bands (ev):

    -6.0087  -5.9526  -5.9195  -5.5089  -5.3048  -4.8322  -4.2805  -4.2050
    -4.1585  -4.0047   3.5826  14.6753  15.8079  15.9978

          k =-0.1875 0.1875 0.1875 (  1483 PWs)   bands (ev):

    -5.9643  -5.9643  -5.8479  -5.5492  -5.5492  -4.4205  -4.4205  -4.4120
    -4.0332  -4.0332   3.0258  14.7338  17.9215  17.9215

          k =-0.3125 0.3125 0.0625 (  1489 PWs)   bands (ev):

    -6.0371  -5.9788  -5.8125  -5.5285  -5.4086  -4.5674  -4.5391  -4.2351
    -4.1257  -3.9472   3.5797  13.6876  15.2174  18.0292

          k =-0.4375 0.4375-0.0625 (  1497 PWs)   bands (ev):

    -6.0734  -6.0705  -5.6972  -5.4683  -5.2719  -4.6716  -4.6307  -4.3739
    -3.9913  -3.9078   4.6597  11.7969  13.5190  16.9504

          k = 0.4375-0.4375 0.8125 (  1493 PWs)   bands (ev):

    -6.1324  -6.0657  -5.6497  -5.3589  -5.2429  -4.7391  -4.6536  -4.4909
    -3.9192  -3.8847   6.0754   9.3944  13.4612  15.9044

          k = 0.3125-0.3125 0.6875 (  1487 PWs)   bands (ev):

    -6.1380  -6.0335  -5.7105  -5.3092  -5.2408  -4.8663  -4.5384  -4.4589
    -3.9736  -3.8649   6.0928   9.3532  13.9916  15.3073

          k = 0.1875-0.1875 0.5625 (  1488 PWs)   bands (ev):

    -6.0901  -5.9953  -5.8216  -5.4024  -5.2103  -4.9203  -4.4086  -4.3231
    -4.0567  -3.9228   4.6705  11.7557  14.9520  15.2746

          k =-0.1875 0.4375 0.1875 (  1484 PWs)   bands (ev):

    -6.0523  -5.9706  -5.8410  -5.4889  -5.3413  -4.7464  -4.3506  -4.3320
    -4.0929  -3.9530   3.9467  12.6417  16.0478  16.3717

          k =-0.3125 0.5625 0.0625 (  1492 PWs)   bands (ev):

    -6.0897  -6.0570  -5.7377  -5.4100  -5.1937  -4.8987  -4.4560  -4.4057
    -3.9899  -3.9106   4.8441  11.8071  13.5677  15.7706

          k = 0.5625-0.3125 0.9375 (  1498 PWs)   bands (ev):

    -6.1506  -6.1018  -5.6044  -5.3005  -5.0826  -4.9760  -4.6464  -4.5275
    -3.8853  -3.8535   6.1739  10.3056  12.3132  14.7187

          k = 0.4375-0.1875 0.8125 (  1502 PWs)   bands (ev):

    -6.1737  -6.0978  -5.5856  -5.2215  -5.0774  -5.0063  -4.7037  -4.5503
    -3.8886  -3.8168   6.9855   9.2396  12.4529  14.1388

          k = 0.3125-0.0625 0.6875 (  1494 PWs)   bands (ev):

    -6.1198  -6.0846  -5.6932  -5.2960  -5.0879  -5.0390  -4.5400  -4.4613
    -3.9269  -3.8822   5.7182  10.9503  12.9403  14.4773

          k =-0.1875 0.6875 0.1875 (  1490 PWs)   bands (ev):

    -6.1226  -6.0248  -5.7801  -5.2832  -5.1271  -5.0325  -4.5234  -4.3612
    -3.9934  -3.8840   5.5553  10.9246  13.5885  14.6687

          k = 0.6875-0.1875 1.0625 (  1496 PWs)   bands (ev):

    -6.1440  -6.1055  -5.6261  -5.2351  -5.1564  -4.9122  -4.6864  -4.5204
    -3.8840  -3.8456   6.7256  10.0339  12.4570  13.5372

          k = 0.5625-0.0625 0.9375 (  1496 PWs)   bands (ev):

    -6.1757  -6.1451  -5.4532  -5.2695  -5.0483  -4.8947  -4.8240  -4.6618
    -3.8326  -3.8027   7.9675   9.0091  11.8873  12.7644

          k = 0.4375 0.0625 0.8125 (  1497 PWs)   bands (ev):

    -6.1701  -6.1256  -5.5371  -5.1865  -5.1291  -4.9533  -4.7544  -4.5852
    -3.8571  -3.8169   7.0841   9.6649  11.9930  13.5312

          k =-0.1875-1.0625 0.1875 (  1495 PWs)   bands (ev):

    -6.1600  -6.0628  -5.6539  -5.3676  -4.9909  -4.8163  -4.8066  -4.5199
    -3.9083  -3.8208   7.6795   8.9761  12.0165  14.0411

          k =-0.3125-0.9375 0.0625 (  1497 PWs)   bands (ev):

    -6.1568  -6.1176  -5.5423  -5.3654  -5.0069  -4.8439  -4.7828  -4.6084
    -3.8600  -3.8228   7.8162   8.9962  12.1704  13.0886

          k =-0.1875-0.8125 0.1875 (  1498 PWs)   bands (ev):

    -6.1471  -6.0493  -5.7177  -5.2587  -5.1419  -4.9156  -4.6652  -4.4380
    -3.9392  -3.8447   6.5787  10.0231  12.5444  14.2528

          k =-0.3125 0.3125 0.3125 (  1489 PWs)   bands (ev):

    -6.0028  -6.0028  -5.8222  -5.4647  -5.4647  -4.4843  -4.4545  -4.4545
    -4.0104  -4.0104   4.1242  11.5055  17.0680  17.0680

          k =-0.4375 0.4375 0.1875 (  1491 PWs)   bands (ev):

    -6.0560  -6.0513  -5.7307  -5.4639  -5.3295  -4.6031  -4.5987  -4.3878
    -4.0025  -3.9328   4.8285  10.7281  14.7651  16.9111

          k = 0.4375-0.4375 1.0625 (  1496 PWs)   bands (ev):

    -6.1550  -6.0830  -5.6153  -5.3335  -5.1494  -4.7930  -4.7524  -4.5005
    -3.8929  -3.8581   5.9903  10.2988  12.2264  15.7925

          k = 0.3125-0.3125 0.9375 (  1499 PWs)   bands (ev):

    -6.1931  -6.0756  -5.6202  -5.1024  -5.0518  -5.0512  -4.8018  -4.5305
    -3.8967  -3.7938   7.2589   9.3006  11.5553  14.7793

          k =-0.3125 0.5625 0.3125 (  1482 PWs)   bands (ev):

    -6.0911  -6.0063  -5.7628  -5.4093  -5.3252  -4.7372  -4.4408  -4.4350
    -4.0231  -3.9165   5.3260   9.8631  15.4377  15.8044

          k = 0.5625-0.3125 1.1875 (  1498 PWs)   bands (ev):

    -6.1455  -6.0753  -5.6399  -5.3197  -5.1772  -4.8858  -4.5973  -4.5132
    -3.9215  -3.8569   6.2544   9.4880  13.3091  14.9642

          k = 0.4375-0.1875 1.0625 (  1500 PWs)   bands (ev):

    -6.1871  -6.1137  -5.5400  -5.1516  -5.0944  -4.9660  -4.8150  -4.5853
    -3.8644  -3.7968   7.4388   9.2978  11.6768  13.7758

          k =-0.3125-1.1875 0.3125 (  1500 PWs)   bands (ev):

    -6.1738  -6.0601  -5.6573  -5.1803  -5.1625  -4.9756  -4.6711  -4.4991
    -3.9247  -3.8204   6.8230   9.1467  12.5983  14.9585

          k =-0.4375 0.4375 0.4375 (  1486 PWs)   bands (ev):

    -6.0090  -6.0090  -5.8047  -5.4401  -5.4401  -4.5366  -4.4480  -4.4480
    -4.0093  -4.0093   5.5727   8.9611  16.6182  16.6182

          k = 0.4375-0.4375 1.3125 (  1498 PWs)   bands (ev):

    -6.0910  -6.0377  -5.7092  -5.3911  -5.3485  -4.6583  -4.5387  -4.4764
    -3.9640  -3.9303   6.1389   8.6985  14.8602  16.1091

     highest occupied level (ev):    18.9951

!    total energy              =    -317.93605775 Ry
     Harris-Foulkes estimate   =    -317.93605775 Ry
     estimated scf accuracy    <          1.8E-09 Ry

     The total energy is the sum of the following terms:

     one-electron contribution =     -93.17501945 Ry
     hartree contribution      =      73.32028027 Ry
     xc contribution           =     -86.91883524 Ry
     ewald contribution        =    -211.16248333 Ry

     convergence has been achieved in   7 iterations

     Writing output data file sn.alpha.10.0.save

     init_run     :      0.53s CPU      0.55s WALL (       1 calls)
     electrons    :      6.35s CPU      6.75s WALL (       1 calls)

     Called by init_run:
     wfcinit      :      0.24s CPU      0.26s WALL (       1 calls)
     potinit      :      0.03s CPU      0.03s WALL (       1 calls)

     Called by electrons:
     c_bands      :      5.09s CPU      5.39s WALL (       7 calls)
     sum_band     :      0.90s CPU      0.96s WALL (       7 calls)
     v_of_rho     :      0.15s CPU      0.15s WALL (       8 calls)
     newd         :      0.23s CPU      0.24s WALL (       8 calls)
     mix_rho      :      0.02s CPU      0.03s WALL (       7 calls)

     Called by c_bands:
     init_us_2    :      0.17s CPU      0.17s WALL (     900 calls)
     cegterg      :      4.74s CPU      5.03s WALL (     420 calls)

     Called by sum_band:
     sum_band:bec :      0.00s CPU      0.00s WALL (     420 calls)
     addusdens    :      0.29s CPU      0.30s WALL (       7 calls)

     Called by *egterg:
     h_psi        :      3.39s CPU      3.65s WALL (    1684 calls)
     s_psi        :      0.12s CPU      0.11s WALL (    1684 calls)
     g_psi        :      0.04s CPU      0.04s WALL (    1204 calls)
     cdiaghg      :      0.68s CPU      0.70s WALL (    1624 calls)

     Called by h_psi:
     h_psi:pot    :      3.36s CPU      3.61s WALL (    1684 calls)
     h_psi:calbec :      0.19s CPU      0.19s WALL (    1684 calls)
     vloc_psi     :      3.06s CPU      3.30s WALL (    1684 calls)
     add_vuspsi   :      0.11s CPU      0.12s WALL (    1684 calls)

     General routines
     calbec       :      0.24s CPU      0.23s WALL (    2104 calls)
     fft          :      0.06s CPU      0.07s WALL (     124 calls)
     ffts         :      0.00s CPU      0.00s WALL (      15 calls)
     fftw         :      2.72s CPU      2.91s WALL (   47146 calls)
     interpolate  :      0.01s CPU      0.01s WALL (      15 calls)
     davcio       :      0.00s CPU      0.00s WALL (      60 calls)

     Parallel routines
     fft_scatter  :      0.90s CPU      1.05s WALL (   47285 calls)

     PWSCF        :     7.04s CPU         8.32s WALL


   This run was terminated on:  15:30:31  11Nov2017            

=------------------------------------------------------------------------------=
   JOB DONE.
=------------------------------------------------------------------------------=
