
     Program PWSCF v.6.1 (svn rev. 13369) starts on 13Nov2017 at 10:13:24 

     This program is part of the open-source Quantum ESPRESSO suite
     for quantum simulation of materials; please cite
         "P. Giannozzi et al., J. Phys.:Condens. Matter 21 395502 (2009);
          URL http://www.quantum-espresso.org", 
     in publications or presentations arising from this work. More details at
     http://www.quantum-espresso.org/quote

     Parallel version (MPI), running on     4 processors
     R & G space division:  proc/nbgrp/npool/nimage =       4
     Waiting for input...
     Reading input from standard input

     Current dimensions of program PWSCF are:
     Max number of different atomic species (ntypx) = 10
     Max number of k-points (npk) =  40000
     Max angular momentum in pseudopotentials (lmaxx) =  3

     Subspace diagonalization in iterative solution of the eigenvalue problem:
     a serial algorithm will be used


     Parallelization info
     --------------------
     sticks:   dense  smooth     PW     G-vecs:    dense   smooth      PW
     Min        1186     473    194                16785     4250    1104
     Max        1189     474    195                16786     4251    1105
     Sum        4749    1893    777                67141    17001    4417



     bravais-lattice index     =            0
     lattice parameter (alat)  =      11.1000  a.u.
     unit-cell volume          =     355.3586 (a.u.)^3
     number of atoms/cell      =            2
     number of atomic types    =            1
     number of electrons       =        28.00
     number of Kohn-Sham states=           18
     kinetic-energy cutoff     =      50.0000  Ry
     charge density cutoff     =     500.0000  Ry
     convergence threshold     =      1.0E-08
     mixing beta               =       0.7000
     number of iterations used =            8  plain     mixing
     Exchange-correlation      =  SLA  PW   PBX  PBC ( 1  4  3  4 0 0)

     celldm(1)=  11.100000  celldm(2)=   0.000000  celldm(3)=   0.000000
     celldm(4)=   0.000000  celldm(5)=   0.000000  celldm(6)=   0.000000

     crystal axes: (cart. coord. in units of alat)
               a(1) = (   0.986837   0.000000   0.000000 )  
               a(2) = (   0.000000   0.986837   0.000000 )  
               a(3) = (   0.493419   0.493419   0.266813 )  

     reciprocal axes: (cart. coord. in units 2 pi/alat)
               b(1) = (  1.013339  0.000000 -1.873974 )  
               b(2) = (  0.000000  1.013339 -1.873974 )  
               b(3) = (  0.000000  0.000000  3.747943 )  


     PseudoPot. # 1 for Sn read from file:
     /home/s1333534/quantum_espresso/qe-6.1/pseudo/sn_pbe_v1.4.uspp.F.UPF
     MD5 check sum: 469debedee59599fedebd795477fea03
     Pseudo is Ultrasoft + core correction, Zval = 14.0
     Generated by new atomic code, or converted to UPF format
     Using radial grid of  891 points,  6 beta functions with: 
                l(1) =   0
                l(2) =   0
                l(3) =   1
                l(4) =   1
                l(5) =   2
                l(6) =   2
     Q(r) pseudized with  8 coefficients,  rinner =    1.350   1.350   1.350
                                                       1.350   1.350

     atomic species   valence    mass     pseudopotential
        Sn            14.00   118.71000     Sn( 1.00)

     No symmetry found



   Cartesian axes

     site n.     atom                  positions (alat units)
         1           Sn  tau(   1) = (   1.0725850   1.3160481   0.0533919  )
         2           Sn  tau(   2) = (   0.5198369   0.2763739   0.0177973  )

     number of k points=   800  Marzari-Vanderbilt smearing, width (Ry)=  0.0200

     Number of k-points >= 100: set verbosity='high' to print them.

     Dense  grid:    67141 G-vectors     FFT dimensions: (  80,  80,  60)

     Smooth grid:    17001 G-vectors     FFT dimensions: (  50,  50,  40)

     Estimated max dynamical RAM per process >     131.44MB

     Estimated total allocated dynamical RAM >     525.77MB

     Initial potential from superposition of free atoms

     starting charge   25.99991, renormalised to   28.00000
     Starting wfc are   18 randomized atomic wfcs

     total cpu time spent up to now is       24.1 secs

     per-process dynamical memory:   139.7 Mb

     Self-consistent Calculation

     iteration #  1     ecut=    50.00 Ry     beta=0.70
     Davidson diagonalization with overlap
     ethr =  1.00E-02,  avg # of iterations =  4.0

     total cpu time spent up to now is      113.3 secs

     total energy              =    -317.50225634 Ry
     Harris-Foulkes estimate   =    -319.44982672 Ry
     estimated scf accuracy    <       2.38525626 Ry

     iteration #  2     ecut=    50.00 Ry     beta=0.70
     Davidson diagonalization with overlap
     ethr =  8.52E-03,  avg # of iterations =  2.5

     total cpu time spent up to now is      189.6 secs

     total energy              =    -318.34547845 Ry
     Harris-Foulkes estimate   =    -318.64056480 Ry
     estimated scf accuracy    <       0.43424545 Ry

     iteration #  3     ecut=    50.00 Ry     beta=0.70
     Davidson diagonalization with overlap
     ethr =  1.55E-03,  avg # of iterations =  2.0

     total cpu time spent up to now is      269.7 secs

     total energy              =    -318.43544586 Ry
     Harris-Foulkes estimate   =    -318.43714446 Ry
     estimated scf accuracy    <       0.00287594 Ry

     iteration #  4     ecut=    50.00 Ry     beta=0.70
     Davidson diagonalization with overlap
     ethr =  1.03E-05,  avg # of iterations =  3.6

     total cpu time spent up to now is      350.2 secs

     total energy              =    -318.43605621 Ry
     Harris-Foulkes estimate   =    -318.43621584 Ry
     estimated scf accuracy    <       0.00031879 Ry

     iteration #  5     ecut=    50.00 Ry     beta=0.70
     Davidson diagonalization with overlap
     ethr =  1.14E-06,  avg # of iterations =  2.6

     total cpu time spent up to now is      419.0 secs

     total energy              =    -318.43610670 Ry
     Harris-Foulkes estimate   =    -318.43611691 Ry
     estimated scf accuracy    <       0.00001783 Ry

     iteration #  6     ecut=    50.00 Ry     beta=0.70
     Davidson diagonalization with overlap
     ethr =  6.37E-08,  avg # of iterations =  3.0

     total cpu time spent up to now is      499.1 secs

     total energy              =    -318.43611341 Ry
     Harris-Foulkes estimate   =    -318.43611385 Ry
     estimated scf accuracy    <       0.00000092 Ry

     iteration #  7     ecut=    50.00 Ry     beta=0.70
     Davidson diagonalization with overlap
     ethr =  3.28E-09,  avg # of iterations =  2.9

     total cpu time spent up to now is      570.6 secs

     total energy              =    -318.43611356 Ry
     Harris-Foulkes estimate   =    -318.43611367 Ry
     estimated scf accuracy    <       0.00000017 Ry

     iteration #  8     ecut=    50.00 Ry     beta=0.70
     Davidson diagonalization with overlap
     ethr =  6.16E-10,  avg # of iterations =  3.0

     total cpu time spent up to now is      647.2 secs

     End of self-consistent calculation

     Number of k-points >= 100: set verbosity='high' to print the bands.

     the Fermi energy is    11.2354 ev

!    total energy              =    -318.43611361 Ry
     Harris-Foulkes estimate   =    -318.43611362 Ry
     estimated scf accuracy    <          5.4E-09 Ry

     The total energy is the sum of the following terms:

     one-electron contribution =    -113.05976496 Ry
     hartree contribution      =      77.36027161 Ry
     xc contribution           =     -86.11063378 Ry
     ewald contribution        =    -196.62601031 Ry
     smearing contrib. (-TS)   =       0.00002384 Ry

     convergence has been achieved in   8 iterations

     Writing output data file sn.beta.11.10.save

     init_run     :     22.61s CPU     23.98s WALL (       1 calls)
     electrons    :    594.23s CPU    623.23s WALL (       1 calls)

     Called by init_run:
     wfcinit      :     21.50s CPU     22.79s WALL (       1 calls)
     potinit      :      0.29s CPU      0.31s WALL (       1 calls)

     Called by electrons:
     c_bands      :    493.15s CPU    516.89s WALL (       8 calls)
     sum_band     :     99.39s CPU    104.43s WALL (       8 calls)
     v_of_rho     :      0.87s CPU      0.93s WALL (       9 calls)
     newd         :      0.83s CPU      0.95s WALL (       9 calls)
     mix_rho      :      0.08s CPU      0.09s WALL (       8 calls)

     Called by c_bands:
     init_us_2    :      3.95s CPU      4.13s WALL (   13600 calls)
     cegterg      :    485.14s CPU    508.51s WALL (    6400 calls)

     Called by sum_band:
     sum_band:bec :      0.07s CPU      0.10s WALL (    6400 calls)
     addusdens    :      0.95s CPU      1.12s WALL (       8 calls)

     Called by *egterg:
     h_psi        :    462.37s CPU    485.05s WALL (   26043 calls)
     s_psi        :      2.57s CPU      2.64s WALL (   26043 calls)
     g_psi        :      0.88s CPU      0.91s WALL (   18843 calls)
     cdiaghg      :     17.14s CPU     17.74s WALL (   25243 calls)

     Called by h_psi:
     h_psi:pot    :    461.09s CPU    483.68s WALL (   26043 calls)
     h_psi:calbec :      7.34s CPU      7.66s WALL (   26043 calls)
     vloc_psi     :    450.31s CPU    472.41s WALL (   26043 calls)
     add_vuspsi   :      3.42s CPU      3.50s WALL (   26043 calls)

     General routines
     calbec       :     10.08s CPU     10.53s WALL (   32443 calls)
     fft          :      0.57s CPU      0.64s WALL (     140 calls)
     ffts         :      0.02s CPU      0.02s WALL (      17 calls)
     fftw         :    360.99s CPU    380.95s WALL (  802420 calls)
     interpolate  :      0.10s CPU      0.12s WALL (      17 calls)
     davcio       :      0.02s CPU      0.04s WALL (     800 calls)

     Parallel routines
     fft_scatter  :     91.45s CPU    100.12s WALL (  802577 calls)

     PWSCF        : 10m18.02s CPU    11m 0.59s WALL


   This run was terminated on:  10:24:24  13Nov2017            

=------------------------------------------------------------------------------=
   JOB DONE.
=------------------------------------------------------------------------------=
