
     Program PWSCF v.6.1 (svn rev. 13369) starts on 23Nov2017 at  1:38:24 

     This program is part of the open-source Quantum ESPRESSO suite
     for quantum simulation of materials; please cite
         "P. Giannozzi et al., J. Phys.:Condens. Matter 21 395502 (2009);
          URL http://www.quantum-espresso.org", 
     in publications or presentations arising from this work. More details at
     http://www.quantum-espresso.org/quote

     Parallel version (MPI), running on     4 processors
     R & G space division:  proc/nbgrp/npool/nimage =       4
     Waiting for input...
     Reading input from standard input
     Message from routine read_cards :
     DEPRECATED: no units specified in ATOMIC_POSITIONS card
     Message from routine read_cards :
     ATOMIC_POSITIONS: units set to alat

     Current dimensions of program PWSCF are:
     Max number of different atomic species (ntypx) = 10
     Max number of k-points (npk) =  40000
     Max angular momentum in pseudopotentials (lmaxx) =  3

     Subspace diagonalization in iterative solution of the eigenvalue problem:
     a serial algorithm will be used


     Parallelization info
     --------------------
     sticks:   dense  smooth     PW     G-vecs:    dense   smooth      PW
     Min         540     267     84                16574     5851    1003
     Max         541     268     85                16577     5855    1005
     Sum        2161    1069    337                66299    23409    4015



     bravais-lattice index     =            2
     lattice parameter (alat)  =      12.5200  a.u.
     unit-cell volume          =     490.6288 (a.u.)^3
     number of atoms/cell      =            2
     number of atomic types    =            1
     number of electrons       =        28.00
     number of Kohn-Sham states=           14
     kinetic-energy cutoff     =      50.0000  Ry
     charge density cutoff     =     400.0000  Ry
     convergence threshold     =      1.0E-08
     mixing beta               =       0.7000
     number of iterations used =            8  plain     mixing
     Exchange-correlation      =  SLA  PW   PBX  PBC ( 1  4  3  4 0 0)

     celldm(1)=  12.520000  celldm(2)=   0.000000  celldm(3)=   0.000000
     celldm(4)=   0.000000  celldm(5)=   0.000000  celldm(6)=   0.000000

     crystal axes: (cart. coord. in units of alat)
               a(1) = (  -0.500000   0.000000   0.500000 )  
               a(2) = (   0.000000   0.500000   0.500000 )  
               a(3) = (  -0.500000   0.500000   0.000000 )  

     reciprocal axes: (cart. coord. in units 2 pi/alat)
               b(1) = ( -1.000000 -1.000000  1.000000 )  
               b(2) = (  1.000000  1.000000  1.000000 )  
               b(3) = ( -1.000000  1.000000 -1.000000 )  


     PseudoPot. # 1 for Sn read from file:
     /home/s1333534/quantum_espresso/qe-6.1/pseudo/sn_pbe_v1.4.uspp.F.UPF
     MD5 check sum: 469debedee59599fedebd795477fea03
     Pseudo is Ultrasoft + core correction, Zval = 14.0
     Generated by new atomic code, or converted to UPF format
     Using radial grid of  891 points,  6 beta functions with: 
                l(1) =   0
                l(2) =   0
                l(3) =   1
                l(4) =   1
                l(5) =   2
                l(6) =   2
     Q(r) pseudized with  8 coefficients,  rinner =    1.350   1.350   1.350
                                                       1.350   1.350

     atomic species   valence    mass     pseudopotential
        Sn            14.00   118.71000     Sn( 1.00)

     48 Sym. Ops., with inversion, found (24 have fractional translation)



   Cartesian axes

     site n.     atom                  positions (alat units)
         1           Sn  tau(   1) = (   0.0000000   0.0000000   0.0000000  )
         2           Sn  tau(   2) = (   0.2500000   0.2500000   0.2500000  )

     number of k points=   408

     Number of k-points >= 100: set verbosity='high' to print them.

     Dense  grid:    66299 G-vectors     FFT dimensions: (  60,  60,  60)

     Smooth grid:    23409 G-vectors     FFT dimensions: (  40,  40,  40)

     Estimated max dynamical RAM per process >      75.98MB

     Estimated total allocated dynamical RAM >     303.91MB

     Initial potential from superposition of free atoms

     starting charge   25.99991, renormalised to   28.00000
     Starting wfc are   18 randomized atomic wfcs

     total cpu time spent up to now is        6.0 secs

     per-process dynamical memory:    82.8 Mb

     Self-consistent Calculation

     iteration #  1     ecut=    50.00 Ry     beta=0.70
     Davidson diagonalization with overlap
     ethr =  1.00E-02,  avg # of iterations =  2.7

     total cpu time spent up to now is       22.0 secs

     total energy              =    -317.48661518 Ry
     Harris-Foulkes estimate   =    -319.54657498 Ry
     estimated scf accuracy    <       2.50991790 Ry

     iteration #  2     ecut=    50.00 Ry     beta=0.70
     Davidson diagonalization with overlap
     ethr =  8.96E-03,  avg # of iterations =  3.0

     total cpu time spent up to now is       39.0 secs

     total energy              =    -318.39383223 Ry
     Harris-Foulkes estimate   =    -318.71176504 Ry
     estimated scf accuracy    <       0.47354038 Ry

     iteration #  3     ecut=    50.00 Ry     beta=0.70
     Davidson diagonalization with overlap
     ethr =  1.69E-03,  avg # of iterations =  2.0

     total cpu time spent up to now is       53.8 secs

     total energy              =    -318.48881597 Ry
     Harris-Foulkes estimate   =    -318.49038544 Ry
     estimated scf accuracy    <       0.00287729 Ry

     iteration #  4     ecut=    50.00 Ry     beta=0.70
     Davidson diagonalization with overlap
     ethr =  1.03E-05,  avg # of iterations =  2.9

     total cpu time spent up to now is       69.7 secs

     total energy              =    -318.48970077 Ry
     Harris-Foulkes estimate   =    -318.48981832 Ry
     estimated scf accuracy    <       0.00017424 Ry

     iteration #  5     ecut=    50.00 Ry     beta=0.70
     Davidson diagonalization with overlap
     ethr =  6.22E-07,  avg # of iterations =  3.0

     total cpu time spent up to now is       85.8 secs

     total energy              =    -318.48975416 Ry
     Harris-Foulkes estimate   =    -318.48975487 Ry
     estimated scf accuracy    <       0.00000149 Ry

     iteration #  6     ecut=    50.00 Ry     beta=0.70
     Davidson diagonalization with overlap
     ethr =  5.31E-09,  avg # of iterations =  3.9

     total cpu time spent up to now is      104.3 secs

     total energy              =    -318.48975494 Ry
     Harris-Foulkes estimate   =    -318.48975498 Ry
     estimated scf accuracy    <       0.00000007 Ry

     iteration #  7     ecut=    50.00 Ry     beta=0.70
     Davidson diagonalization with overlap
     ethr =  2.66E-10,  avg # of iterations =  3.1

     total cpu time spent up to now is      120.9 secs

     End of self-consistent calculation

     Number of k-points >= 100: set verbosity='high' to print the bands.

     highest occupied level (ev):     7.1485

!    total energy              =    -318.48975497 Ry
     Harris-Foulkes estimate   =    -318.48975497 Ry
     estimated scf accuracy    <          2.5E-09 Ry

     The total energy is the sum of the following terms:

     one-electron contribution =    -161.00664969 Ry
     hartree contribution      =      97.15108171 Ry
     xc contribution           =     -85.97405654 Ry
     ewald contribution        =    -168.66013046 Ry

     convergence has been achieved in   7 iterations


     Computing stress (Cartesian axis) and pressure

          total   stress  (Ry/bohr**3)                   (kbar)     P=  -13.60
  -0.00009242   0.00000000   0.00000000        -13.60      0.00      0.00
   0.00000000  -0.00009242   0.00000000          0.00    -13.60      0.00
  -0.00000000   0.00000000  -0.00009242         -0.00      0.00    -13.60


     Writing output data file sn.a.12.52.16.save

     init_run     :      5.70s CPU      5.90s WALL (       1 calls)
     electrons    :    111.80s CPU    114.93s WALL (       1 calls)
     stress       :      3.28s CPU      3.31s WALL (       1 calls)

     Called by init_run:
     wfcinit      :      5.20s CPU      5.37s WALL (       1 calls)
     potinit      :      0.06s CPU      0.06s WALL (       1 calls)

     Called by electrons:
     c_bands      :     95.98s CPU     98.58s WALL (       7 calls)
     sum_band     :     14.99s CPU     15.44s WALL (       7 calls)
     v_of_rho     :      0.36s CPU      0.38s WALL (       8 calls)
     newd         :      0.52s CPU      0.59s WALL (       8 calls)
     mix_rho      :      0.03s CPU      0.03s WALL (       7 calls)

     Called by c_bands:
     init_us_2    :      2.64s CPU      2.69s WALL (    6528 calls)
     cegterg      :     91.24s CPU     93.78s WALL (    2856 calls)

     Called by sum_band:
     sum_band:bec :      0.02s CPU      0.03s WALL (    2856 calls)
     addusdens    :      0.53s CPU      0.63s WALL (       7 calls)

     Called by *egterg:
     h_psi        :     79.12s CPU     81.59s WALL (   11689 calls)
     s_psi        :      1.49s CPU      1.52s WALL (   11689 calls)
     g_psi        :      0.51s CPU      0.52s WALL (    8425 calls)
     cdiaghg      :      4.97s CPU      5.00s WALL (   11281 calls)

     Called by h_psi:
     h_psi:pot    :     78.35s CPU     80.80s WALL (   11689 calls)
     h_psi:calbec :      3.33s CPU      3.39s WALL (   11689 calls)
     vloc_psi     :     72.97s CPU     75.31s WALL (   11689 calls)
     add_vuspsi   :      2.02s CPU      2.06s WALL (   11689 calls)

     General routines
     calbec       :      4.31s CPU      4.37s WALL (   14953 calls)
     fft          :      0.19s CPU      0.21s WALL (     138 calls)
     ffts         :      0.01s CPU      0.01s WALL (      15 calls)
     fftw         :     66.32s CPU     68.74s WALL (  310088 calls)
     interpolate  :      0.03s CPU      0.04s WALL (      15 calls)
     davcio       :      0.01s CPU      0.03s WALL (     408 calls)

     Parallel routines
     fft_scatter  :     11.51s CPU     11.15s WALL (  310241 calls)

     PWSCF        :  2m 1.24s CPU     2m 4.68s WALL


   This run was terminated on:   1:40:29  23Nov2017            

=------------------------------------------------------------------------------=
   JOB DONE.
=------------------------------------------------------------------------------=
