
     Program PWSCF v.6.1 (svn rev. 13369) starts on 23Nov2017 at  1:35: 1 

     This program is part of the open-source Quantum ESPRESSO suite
     for quantum simulation of materials; please cite
         "P. Giannozzi et al., J. Phys.:Condens. Matter 21 395502 (2009);
          URL http://www.quantum-espresso.org", 
     in publications or presentations arising from this work. More details at
     http://www.quantum-espresso.org/quote

     Parallel version (MPI), running on     4 processors
     R & G space division:  proc/nbgrp/npool/nimage =       4
     Waiting for input...
     Reading input from standard input
     Message from routine read_cards :
     DEPRECATED: no units specified in ATOMIC_POSITIONS card
     Message from routine read_cards :
     ATOMIC_POSITIONS: units set to alat

     Current dimensions of program PWSCF are:
     Max number of different atomic species (ntypx) = 10
     Max number of k-points (npk) =  40000
     Max angular momentum in pseudopotentials (lmaxx) =  3

     Subspace diagonalization in iterative solution of the eigenvalue problem:
     a serial algorithm will be used


     Parallelization info
     --------------------
     sticks:   dense  smooth     PW     G-vecs:    dense   smooth      PW
     Min         540     267     78                16574     5851     958
     Max         541     268     79                16577     5855     963
     Sum        2161    1069    313                66299    23409    3839



     bravais-lattice index     =            2
     lattice parameter (alat)  =      12.5200  a.u.
     unit-cell volume          =     490.6288 (a.u.)^3
     number of atoms/cell      =            2
     number of atomic types    =            1
     number of electrons       =        28.00
     number of Kohn-Sham states=           14
     kinetic-energy cutoff     =      50.0000  Ry
     charge density cutoff     =     400.0000  Ry
     convergence threshold     =      1.0E-08
     mixing beta               =       0.7000
     number of iterations used =            8  plain     mixing
     Exchange-correlation      =  SLA  PW   PBX  PBC ( 1  4  3  4 0 0)

     celldm(1)=  12.520000  celldm(2)=   0.000000  celldm(3)=   0.000000
     celldm(4)=   0.000000  celldm(5)=   0.000000  celldm(6)=   0.000000

     crystal axes: (cart. coord. in units of alat)
               a(1) = (  -0.500000   0.000000   0.500000 )  
               a(2) = (   0.000000   0.500000   0.500000 )  
               a(3) = (  -0.500000   0.500000   0.000000 )  

     reciprocal axes: (cart. coord. in units 2 pi/alat)
               b(1) = ( -1.000000 -1.000000  1.000000 )  
               b(2) = (  1.000000  1.000000  1.000000 )  
               b(3) = ( -1.000000  1.000000 -1.000000 )  


     PseudoPot. # 1 for Sn read from file:
     /home/s1333534/quantum_espresso/qe-6.1/pseudo/sn_pbe_v1.4.uspp.F.UPF
     MD5 check sum: 469debedee59599fedebd795477fea03
     Pseudo is Ultrasoft + core correction, Zval = 14.0
     Generated by new atomic code, or converted to UPF format
     Using radial grid of  891 points,  6 beta functions with: 
                l(1) =   0
                l(2) =   0
                l(3) =   1
                l(4) =   1
                l(5) =   2
                l(6) =   2
     Q(r) pseudized with  8 coefficients,  rinner =    1.350   1.350   1.350
                                                       1.350   1.350

     atomic species   valence    mass     pseudopotential
        Sn            14.00   118.71000     Sn( 1.00)

     48 Sym. Ops., with inversion, found (24 have fractional translation)



   Cartesian axes

     site n.     atom                  positions (alat units)
         1           Sn  tau(   1) = (   0.0000000   0.0000000   0.0000000  )
         2           Sn  tau(   2) = (   0.2500000   0.2500000   0.2500000  )

     number of k points=    60
                       cart. coord. in units 2pi/alat
        k(    1) = (  -0.0625000   0.0625000   0.0625000), wk =   0.0078125
        k(    2) = (  -0.1875000   0.1875000  -0.0625000), wk =   0.0234375
        k(    3) = (  -0.3125000   0.3125000  -0.1875000), wk =   0.0234375
        k(    4) = (  -0.4375000   0.4375000  -0.3125000), wk =   0.0234375
        k(    5) = (   0.4375000  -0.4375000   0.5625000), wk =   0.0234375
        k(    6) = (   0.3125000  -0.3125000   0.4375000), wk =   0.0234375
        k(    7) = (   0.1875000  -0.1875000   0.3125000), wk =   0.0234375
        k(    8) = (   0.0625000  -0.0625000   0.1875000), wk =   0.0234375
        k(    9) = (  -0.0625000   0.3125000   0.0625000), wk =   0.0234375
        k(   10) = (  -0.1875000   0.4375000  -0.0625000), wk =   0.0468750
        k(   11) = (  -0.3125000   0.5625000  -0.1875000), wk =   0.0468750
        k(   12) = (   0.5625000  -0.3125000   0.6875000), wk =   0.0468750
        k(   13) = (   0.4375000  -0.1875000   0.5625000), wk =   0.0468750
        k(   14) = (   0.3125000  -0.0625000   0.4375000), wk =   0.0468750
        k(   15) = (   0.1875000   0.0625000   0.3125000), wk =   0.0468750
        k(   16) = (  -0.0625000   0.5625000   0.0625000), wk =   0.0234375
        k(   17) = (  -0.1875000   0.6875000  -0.0625000), wk =   0.0468750
        k(   18) = (   0.6875000  -0.1875000   0.8125000), wk =   0.0468750
        k(   19) = (   0.5625000  -0.0625000   0.6875000), wk =   0.0468750
        k(   20) = (   0.4375000   0.0625000   0.5625000), wk =   0.0468750
        k(   21) = (   0.3125000   0.1875000   0.4375000), wk =   0.0468750
        k(   22) = (  -0.0625000   0.8125000   0.0625000), wk =   0.0234375
        k(   23) = (   0.8125000  -0.0625000   0.9375000), wk =   0.0468750
        k(   24) = (   0.6875000   0.0625000   0.8125000), wk =   0.0468750
        k(   25) = (   0.5625000   0.1875000   0.6875000), wk =   0.0468750
        k(   26) = (   0.4375000   0.3125000   0.5625000), wk =   0.0468750
        k(   27) = (  -0.0625000  -0.9375000   0.0625000), wk =   0.0234375
        k(   28) = (  -0.1875000  -0.8125000  -0.0625000), wk =   0.0468750
        k(   29) = (  -0.3125000  -0.6875000  -0.1875000), wk =   0.0468750
        k(   30) = (  -0.0625000  -0.6875000   0.0625000), wk =   0.0234375
        k(   31) = (  -0.1875000  -0.5625000  -0.0625000), wk =   0.0468750
        k(   32) = (  -0.0625000  -0.4375000   0.0625000), wk =   0.0234375
        k(   33) = (  -0.1875000   0.1875000   0.1875000), wk =   0.0078125
        k(   34) = (  -0.3125000   0.3125000   0.0625000), wk =   0.0234375
        k(   35) = (  -0.4375000   0.4375000  -0.0625000), wk =   0.0234375
        k(   36) = (   0.4375000  -0.4375000   0.8125000), wk =   0.0234375
        k(   37) = (   0.3125000  -0.3125000   0.6875000), wk =   0.0234375
        k(   38) = (   0.1875000  -0.1875000   0.5625000), wk =   0.0234375
        k(   39) = (  -0.1875000   0.4375000   0.1875000), wk =   0.0234375
        k(   40) = (  -0.3125000   0.5625000   0.0625000), wk =   0.0468750
        k(   41) = (   0.5625000  -0.3125000   0.9375000), wk =   0.0468750
        k(   42) = (   0.4375000  -0.1875000   0.8125000), wk =   0.0468750
        k(   43) = (   0.3125000  -0.0625000   0.6875000), wk =   0.0468750
        k(   44) = (  -0.1875000   0.6875000   0.1875000), wk =   0.0234375
        k(   45) = (   0.6875000  -0.1875000   1.0625000), wk =   0.0468750
        k(   46) = (   0.5625000  -0.0625000   0.9375000), wk =   0.0468750
        k(   47) = (   0.4375000   0.0625000   0.8125000), wk =   0.0468750
        k(   48) = (  -0.1875000  -1.0625000   0.1875000), wk =   0.0234375
        k(   49) = (  -0.3125000  -0.9375000   0.0625000), wk =   0.0468750
        k(   50) = (  -0.1875000  -0.8125000   0.1875000), wk =   0.0234375
        k(   51) = (  -0.3125000   0.3125000   0.3125000), wk =   0.0078125
        k(   52) = (  -0.4375000   0.4375000   0.1875000), wk =   0.0234375
        k(   53) = (   0.4375000  -0.4375000   1.0625000), wk =   0.0234375
        k(   54) = (   0.3125000  -0.3125000   0.9375000), wk =   0.0234375
        k(   55) = (  -0.3125000   0.5625000   0.3125000), wk =   0.0234375
        k(   56) = (   0.5625000  -0.3125000   1.1875000), wk =   0.0468750
        k(   57) = (   0.4375000  -0.1875000   1.0625000), wk =   0.0468750
        k(   58) = (  -0.3125000  -1.1875000   0.3125000), wk =   0.0234375
        k(   59) = (  -0.4375000   0.4375000   0.4375000), wk =   0.0078125
        k(   60) = (   0.4375000  -0.4375000   1.3125000), wk =   0.0234375

     Dense  grid:    66299 G-vectors     FFT dimensions: (  60,  60,  60)

     Smooth grid:    23409 G-vectors     FFT dimensions: (  40,  40,  40)

     Estimated max dynamical RAM per process >      21.56MB

     Estimated total allocated dynamical RAM >      86.24MB

     Initial potential from superposition of free atoms

     starting charge   25.99991, renormalised to   28.00000
     Starting wfc are   18 randomized atomic wfcs

     total cpu time spent up to now is        1.5 secs

     per-process dynamical memory:    25.6 Mb

     Self-consistent Calculation

     iteration #  1     ecut=    50.00 Ry     beta=0.70
     Davidson diagonalization with overlap
     ethr =  1.00E-02,  avg # of iterations =  2.6

     total cpu time spent up to now is        4.1 secs

     total energy              =    -317.48661127 Ry
     Harris-Foulkes estimate   =    -319.54653587 Ry
     estimated scf accuracy    <       2.50988145 Ry

     iteration #  2     ecut=    50.00 Ry     beta=0.70
     Davidson diagonalization with overlap
     ethr =  8.96E-03,  avg # of iterations =  3.0

     total cpu time spent up to now is        6.9 secs

     total energy              =    -318.39381344 Ry
     Harris-Foulkes estimate   =    -318.71164457 Ry
     estimated scf accuracy    <       0.47340598 Ry

     iteration #  3     ecut=    50.00 Ry     beta=0.70
     Davidson diagonalization with overlap
     ethr =  1.69E-03,  avg # of iterations =  2.0

     total cpu time spent up to now is        9.4 secs

     total energy              =    -318.48879291 Ry
     Harris-Foulkes estimate   =    -318.49036537 Ry
     estimated scf accuracy    <       0.00288077 Ry

     iteration #  4     ecut=    50.00 Ry     beta=0.70
     Davidson diagonalization with overlap
     ethr =  1.03E-05,  avg # of iterations =  3.0

     total cpu time spent up to now is       12.0 secs

     total energy              =    -318.48968361 Ry
     Harris-Foulkes estimate   =    -318.48980064 Ry
     estimated scf accuracy    <       0.00017351 Ry

     iteration #  5     ecut=    50.00 Ry     beta=0.70
     Davidson diagonalization with overlap
     ethr =  6.20E-07,  avg # of iterations =  3.0

     total cpu time spent up to now is       14.7 secs

     total energy              =    -318.48973661 Ry
     Harris-Foulkes estimate   =    -318.48973727 Ry
     estimated scf accuracy    <       0.00000140 Ry

     iteration #  6     ecut=    50.00 Ry     beta=0.70
     Davidson diagonalization with overlap
     ethr =  4.98E-09,  avg # of iterations =  4.0

     total cpu time spent up to now is       17.6 secs

     total energy              =    -318.48973737 Ry
     Harris-Foulkes estimate   =    -318.48973742 Ry
     estimated scf accuracy    <       0.00000008 Ry

     iteration #  7     ecut=    50.00 Ry     beta=0.70
     Davidson diagonalization with overlap
     ethr =  2.74E-10,  avg # of iterations =  3.1

     total cpu time spent up to now is       20.3 secs

     End of self-consistent calculation

          k =-0.0625 0.0625 0.0625 (  2912 PWs)   bands (ev):

   -14.5052 -14.5052 -14.5019 -14.4491 -14.4491 -14.2012 -14.2012 -14.1918
   -14.1793 -14.1793  -3.0870   5.5813   7.0934   7.0934

          k =-0.1875 0.1875-0.0625 (  2909 PWs)   bands (ev):

   -14.5176 -14.5126 -14.4986 -14.4377 -14.4304 -14.2248 -14.2152 -14.1893
   -14.1737 -14.1608  -2.8996   4.3818   6.4025   6.9543

          k =-0.3125 0.3125-0.1875 (  2914 PWs)   bands (ev):

   -14.5295 -14.5262 -14.4873 -14.4193 -14.4094 -14.2437 -14.2316 -14.2053
   -14.1562 -14.1483  -2.4539   2.7874   5.9056   6.5258

          k =-0.4375 0.4375-0.3125 (  2928 PWs)   bands (ev):

   -14.5351 -14.5350 -14.4766 -14.4062 -14.3986 -14.2512 -14.2416 -14.2213
   -14.1453 -14.1433  -1.8647   1.4667   5.6587   6.1622

          k = 0.4375-0.4375 0.5625 (  2932 PWs)   bands (ev):

   -14.5386 -14.5343 -14.4736 -14.4000 -14.3992 -14.2501 -14.2477 -14.2244
   -14.1450 -14.1409  -1.6030   1.0158   5.6595   5.9862

          k = 0.3125-0.3125 0.4375 (  2932 PWs)   bands (ev):

   -14.5360 -14.5302 -14.4811 -14.4092 -14.4005 -14.2535 -14.2376 -14.2142
   -14.1510 -14.1428  -2.0596   1.8477   5.8918   6.0360

          k = 0.1875-0.1875 0.3125 (  2918 PWs)   bands (ev):

   -14.5263 -14.5212 -14.4929 -14.4257 -14.4143 -14.2438 -14.2220 -14.1988
   -14.1617 -14.1523  -2.6270   3.3112   6.3091   6.3127

          k = 0.0625-0.0625 0.1875 (  2904 PWs)   bands (ev):

   -14.5115 -14.5091 -14.5026 -14.4445 -14.4356 -14.2229 -14.2011 -14.1881
   -14.1784 -14.1673  -2.9926   4.9068   6.7420   6.7770

          k =-0.0625 0.3125 0.0625 (  2906 PWs)   bands (ev):

   -14.5184 -14.5148 -14.5043 -14.4353 -14.4146 -14.2507 -14.2067 -14.1809
   -14.1732 -14.1603  -2.8046   4.0920   6.2661   6.2805

          k =-0.1875 0.4375-0.0625 (  2920 PWs)   bands (ev):

   -14.5319 -14.5267 -14.4913 -14.4189 -14.3904 -14.2766 -14.2243 -14.1918
   -14.1581 -14.1471  -2.4397   2.9687   5.4837   6.0411

          k =-0.3125 0.5625-0.1875 (  2938 PWs)   bands (ev):

   -14.5466 -14.5358 -14.4690 -14.4007 -14.3763 -14.2878 -14.2439 -14.2185
   -14.1447 -14.1322  -1.8708   1.7091   4.9732   5.7364

          k = 0.5625-0.3125 0.6875 (  2930 PWs)   bands (ev):

   -14.5531 -14.5401 -14.4529 -14.3871 -14.3795 -14.2781 -14.2615 -14.2371
   -14.1379 -14.1249  -1.4068   0.9359   4.7100   5.6685

          k = 0.4375-0.1875 0.5625 (  2935 PWs)   bands (ev):

   -14.5494 -14.5404 -14.4563 -14.3984 -14.3782 -14.2771 -14.2484 -14.2384
   -14.1374 -14.1298  -1.6796   1.3692   4.7121   5.8786

          k = 0.3125-0.0625 0.4375 (  2923 PWs)   bands (ev):

   -14.5368 -14.5341 -14.4763 -14.4148 -14.3903 -14.2695 -14.2335 -14.2111
   -14.1490 -14.1409  -2.2719   2.5300   5.0695   6.2722

          k = 0.1875 0.0625 0.3125 (  2911 PWs)   bands (ev):

   -14.5245 -14.5189 -14.4955 -14.4302 -14.4138 -14.2474 -14.2175 -14.1898
   -14.1679 -14.1533  -2.7146   3.6943   5.9351   6.5695

          k =-0.0625 0.5625 0.0625 (  2909 PWs)   bands (ev):

   -14.5335 -14.5309 -14.4958 -14.4031 -14.3589 -14.3149 -14.2365 -14.1801
   -14.1518 -14.1475  -2.1554   2.4278   5.3646   5.4541

          k =-0.1875 0.6875-0.0625 (  2935 PWs)   bands (ev):

   -14.5467 -14.5411 -14.4712 -14.3820 -14.3413 -14.3339 -14.2589 -14.2081
   -14.1380 -14.1320  -1.6353   1.5082   4.7927   5.1892

          k = 0.6875-0.1875 0.8125 (  2929 PWs)   bands (ev):

   -14.5612 -14.5460 -14.4399 -14.3615 -14.3443 -14.3279 -14.2826 -14.2403
   -14.1310 -14.1153  -1.0541   0.6975   4.2086   5.1580

          k = 0.5625-0.0625 0.6875 (  2937 PWs)   bands (ev):

   -14.5638 -14.5472 -14.4312 -14.3668 -14.3483 -14.3109 -14.2907 -14.2503
   -14.1289 -14.1133  -1.1186   0.7796   3.9923   5.4145

          k = 0.4375 0.0625 0.5625 (  2932 PWs)   bands (ev):

   -14.5524 -14.5432 -14.4492 -14.3977 -14.3680 -14.2884 -14.2497 -14.2441
   -14.1333 -14.1273  -1.7088   1.5433   4.3780   5.8546

          k = 0.3125 0.1875 0.4375 (  2924 PWs)   bands (ev):

   -14.5370 -14.5309 -14.4793 -14.4127 -14.3952 -14.2626 -14.2344 -14.2115
   -14.1510 -14.1413  -2.1994   2.2423   5.4441   6.1775

          k =-0.0625 0.8125 0.0625 (  2930 PWs)   bands (ev):

   -14.5464 -14.5441 -14.4645 -14.3819 -14.3580 -14.2964 -14.2813 -14.2133
   -14.1337 -14.1309  -1.1659   0.8467   4.8260   4.9535

          k = 0.8125-0.0625 0.9375 (  2928 PWs)   bands (ev):

   -14.5547 -14.5493 -14.4317 -14.4006 -14.3331 -14.3072 -14.2774 -14.2468
   -14.1268 -14.1212  -0.5389   0.1200   4.4786   4.8027

          k = 0.6875 0.0625 0.8125 (  2931 PWs)   bands (ev):

   -14.5645 -14.5488 -14.4271 -14.3591 -14.3392 -14.3159 -14.3046 -14.2515
   -14.1271 -14.1116  -0.6708   0.2853   4.0292   5.0442

          k = 0.5625 0.1875 0.6875 (  2937 PWs)   bands (ev):

   -14.5602 -14.5446 -14.4398 -14.3750 -14.3637 -14.2964 -14.2775 -14.2452
   -14.1323 -14.1173  -1.2212   0.8189   4.2586   5.4993

          k = 0.4375 0.3125 0.5625 (  2926 PWs)   bands (ev):

   -14.5440 -14.5363 -14.4661 -14.3993 -14.3908 -14.2616 -14.2477 -14.2296
   -14.1427 -14.1347  -1.6359   1.1539   5.2232   5.9198

          k =-0.0625-0.9375 0.0625 (  2927 PWs)   bands (ev):

   -14.5495 -14.5469 -14.4411 -14.4127 -14.3323 -14.3066 -14.2660 -14.2374
   -14.1291 -14.1268  -0.5580   0.1178   4.7160   4.8507

          k =-0.1875-0.8125-0.0625 (  2929 PWs)   bands (ev):

   -14.5520 -14.5463 -14.4534 -14.3720 -14.3584 -14.3049 -14.2820 -14.2253
   -14.1308 -14.1250  -1.1179   0.7972   4.5846   4.9323

          k =-0.3125-0.6875-0.1875 (  2942 PWs)   bands (ev):

   -14.5552 -14.5412 -14.4555 -14.3831 -14.3556 -14.3135 -14.2613 -14.2278
   -14.1375 -14.1228  -1.4809   1.1925   4.5407   5.3881

          k =-0.0625-0.6875 0.0625 (  2926 PWs)   bands (ev):

   -14.5410 -14.5381 -14.4830 -14.3817 -14.3490 -14.3280 -14.2577 -14.1938
   -14.1415 -14.1385  -1.7008   1.6206   5.0439   5.1565

          k =-0.1875-0.5625-0.0625 (  2927 PWs)   bands (ev):

   -14.5396 -14.5342 -14.4838 -14.4025 -14.3636 -14.3081 -14.2390 -14.1966
   -14.1475 -14.1400  -2.0783   2.2359   5.0961   5.5653

          k =-0.0625-0.4375 0.0625 (  2909 PWs)   bands (ev):

   -14.5260 -14.5226 -14.5028 -14.4214 -14.3882 -14.2818 -14.2193 -14.1759
   -14.1631 -14.1555  -2.5246   3.2563   5.7786   5.8355

          k =-0.1875 0.1875 0.1875 (  2911 PWs)   bands (ev):

   -14.5186 -14.5186 -14.4957 -14.4295 -14.4295 -14.2226 -14.2226 -14.1994
   -14.1618 -14.1618  -2.8083   3.9216   6.6903   6.6903

          k =-0.3125 0.3125 0.0625 (  2917 PWs)   bands (ev):

   -14.5305 -14.5263 -14.4855 -14.4232 -14.4067 -14.2486 -14.2312 -14.1999
   -14.1593 -14.1466  -2.5360   3.1340   5.4906   6.6592

          k =-0.4375 0.4375-0.0625 (  2927 PWs)   bands (ev):

   -14.5439 -14.5397 -14.4616 -14.4092 -14.3827 -14.2701 -14.2425 -14.2305
   -14.1379 -14.1368  -2.0258   2.0406   4.6827   6.2345

          k = 0.4375-0.4375 0.8125 (  2936 PWs)   bands (ev):

   -14.5551 -14.5422 -14.4470 -14.3892 -14.3742 -14.2752 -14.2682 -14.2437
   -14.1347 -14.1234  -1.4531   1.0628   4.4563   5.8072

          k = 0.3125-0.3125 0.6875 (  2934 PWs)   bands (ev):

   -14.5549 -14.5391 -14.4554 -14.3841 -14.3705 -14.2949 -14.2611 -14.2300
   -14.1395 -14.1230  -1.4386   1.0397   4.6384   5.5668

          k = 0.1875-0.1875 0.5625 (  2934 PWs)   bands (ev):

   -14.5440 -14.5322 -14.4794 -14.4018 -14.3694 -14.3000 -14.2409 -14.2031
   -14.1495 -14.1351  -2.0074   2.0283   5.1294   5.5757

          k =-0.1875 0.4375 0.1875 (  2926 PWs)   bands (ev):

   -14.5350 -14.5259 -14.4882 -14.4166 -14.3936 -14.2708 -14.2276 -14.1986
   -14.1574 -14.1438  -2.3585   2.6711   5.6953   5.9200

          k =-0.3125 0.5625 0.0625 (  2932 PWs)   bands (ev):

   -14.5451 -14.5403 -14.4662 -14.4013 -14.3682 -14.2974 -14.2426 -14.2203
   -14.1391 -14.1342  -1.9271   1.9178   4.7220   5.7393

          k = 0.5625-0.3125 0.9375 (  2934 PWs)   bands (ev):

   -14.5588 -14.5480 -14.4368 -14.3804 -14.3484 -14.3142 -14.2695 -14.2481
   -14.1287 -14.1190  -1.3318   1.0517   4.1821   5.3442

          k = 0.4375-0.1875 0.8125 (  2940 PWs)   bands (ev):

   -14.5625 -14.5490 -14.4301 -14.3661 -14.3445 -14.3216 -14.2842 -14.2514
   -14.1278 -14.1143  -1.0254   0.6528   4.1445   5.1266

          k = 0.3125-0.0625 0.6875 (  2938 PWs)   bands (ev):

   -14.5526 -14.5460 -14.4531 -14.3824 -14.3437 -14.3266 -14.2612 -14.2297
   -14.1318 -14.1258  -1.5091   1.3065   4.4695   5.2486

          k =-0.1875 0.6875 0.1875 (  2937 PWs)   bands (ev):

   -14.5518 -14.5389 -14.4661 -14.3822 -14.3450 -14.3283 -14.2599 -14.2142
   -14.1405 -14.1263  -1.5811   1.3878   4.6743   5.3024

          k = 0.6875-0.1875 1.0625 (  2935 PWs)   bands (ev):

   -14.5577 -14.5510 -14.4359 -14.3603 -14.3562 -14.3167 -14.2841 -14.2439
   -14.1257 -14.1191  -1.0286   0.7014   4.3203   4.8718

          k = 0.5625-0.0625 0.9375 (  2942 PWs)   bands (ev):

   -14.5631 -14.5576 -14.4027 -14.3674 -14.3385 -14.3130 -14.3034 -14.2734
   -14.1184 -14.1129  -0.4898   0.1229   4.1445   4.5469

          k = 0.4375 0.0625 0.8125 (  2939 PWs)   bands (ev):

   -14.5624 -14.5533 -14.4210 -14.3602 -14.3424 -14.3255 -14.2904 -14.2586
   -14.1230 -14.1143  -0.9116   0.5699   4.1087   4.8738

          k =-0.1875-1.0625 0.1875 (  2925 PWs)   bands (ev):

   -14.5604 -14.5471 -14.4328 -14.3821 -14.3351 -14.3061 -14.2947 -14.2459
   -14.1289 -14.1152  -0.5848   0.1785   4.1984   5.0182

          k =-0.3125-0.9375 0.0625 (  2930 PWs)   bands (ev):

   -14.5599 -14.5540 -14.4162 -14.3824 -14.3354 -14.3087 -14.2931 -14.2615
   -14.1220 -14.1158  -0.5107   0.1222   4.2641   4.6569

          k =-0.1875-0.8125 0.1875 (  2929 PWs)   bands (ev):

   -14.5576 -14.5443 -14.4493 -14.3601 -14.3591 -14.3157 -14.2820 -14.2297
   -14.1331 -14.1191  -1.0923   0.7572   4.3590   5.1141

          k =-0.3125 0.3125 0.3125 (  2923 PWs)   bands (ev):

   -14.5290 -14.5290 -14.4869 -14.4117 -14.4117 -14.2382 -14.2382 -14.2106
   -14.1507 -14.1507  -2.2927   2.3180   6.2998   6.2998

          k =-0.4375 0.4375 0.1875 (  2929 PWs)   bands (ev):

   -14.5404 -14.5378 -14.4679 -14.4081 -14.3899 -14.2619 -14.2408 -14.2277
   -14.1411 -14.1393  -1.9690   1.7935   5.0728   6.2118

          k = 0.4375-0.4375 1.0625 (  2941 PWs)   bands (ev):

   -14.5596 -14.5447 -14.4390 -14.3856 -14.3616 -14.2882 -14.2768 -14.2472
   -14.1316 -14.1189  -1.4341   1.1566   4.1241   5.7630

          k = 0.3125-0.3125 0.9375 (  2931 PWs)   bands (ev):

   -14.5659 -14.5466 -14.4314 -14.3446 -14.3434 -14.3294 -14.3004 -14.2482
   -14.1294 -14.1106  -0.8895   0.5171   3.9356   5.3354

          k =-0.3125 0.5625 0.3125 (  2933 PWs)   bands (ev):

   -14.5456 -14.5337 -14.4700 -14.3998 -14.3862 -14.2735 -14.2454 -14.2204
   -14.1465 -14.1329  -1.7673   1.4175   5.2360   5.7808

          k = 0.5625-0.3125 1.1875 (  2934 PWs)   bands (ev):

   -14.5573 -14.5443 -14.4437 -14.3831 -14.3625 -14.2992 -14.2656 -14.2429
   -14.1331 -14.1204  -1.3521   0.9850   4.3943   5.4575

          k = 0.4375-0.1875 1.0625 (  2946 PWs)   bands (ev):

   -14.5651 -14.5522 -14.4192 -14.3522 -14.3396 -14.3276 -14.3008 -14.2595
   -14.1241 -14.1114  -0.7856   0.4231   4.0013   4.9535

          k =-0.3125-1.1875 0.3125 (  2936 PWs)   bands (ev):

   -14.5621 -14.5440 -14.4412 -14.3640 -14.3553 -14.3147 -14.2812 -14.2407
   -14.1331 -14.1150  -1.1166   0.7246   4.1836   5.4143

          k =-0.4375 0.4375 0.4375 (  2923 PWs)   bands (ev):

   -14.5330 -14.5330 -14.4802 -14.4032 -14.4032 -14.2447 -14.2447 -14.2185
   -14.1464 -14.1464  -1.7327   1.1854   6.0841   6.0841

          k = 0.4375-0.4375 1.3125 (  2938 PWs)   bands (ev):

   -14.5474 -14.5382 -14.4604 -14.3944 -14.3892 -14.2592 -14.2576 -14.2352
   -14.1403 -14.1318  -1.5057   0.9843   5.0114   5.8870

     highest occupied level (ev):     7.0934

!    total energy              =    -318.48973740 Ry
     Harris-Foulkes estimate   =    -318.48973740 Ry
     estimated scf accuracy    <          2.3E-09 Ry

     The total energy is the sum of the following terms:

     one-electron contribution =    -161.00697594 Ry
     hartree contribution      =      97.15146371 Ry
     xc contribution           =     -85.97409472 Ry
     ewald contribution        =    -168.66013046 Ry

     convergence has been achieved in   7 iterations


     Computing stress (Cartesian axis) and pressure

          total   stress  (Ry/bohr**3)                   (kbar)     P=  -13.61
  -0.00009249   0.00000000  -0.00000000        -13.61      0.00     -0.00
   0.00000000  -0.00009249  -0.00000000          0.00    -13.61     -0.00
  -0.00000000   0.00000000  -0.00009249         -0.00      0.00    -13.61


     Writing output data file sn.a.12.52.8.save

     init_run     :      1.31s CPU      1.44s WALL (       1 calls)
     electrons    :     18.21s CPU     18.83s WALL (       1 calls)
     stress       :      0.97s CPU      1.00s WALL (       1 calls)

     Called by init_run:
     wfcinit      :      0.85s CPU      0.93s WALL (       1 calls)
     potinit      :      0.05s CPU      0.06s WALL (       1 calls)

     Called by electrons:
     c_bands      :     14.61s CPU     14.98s WALL (       7 calls)
     sum_band     :      2.76s CPU      2.95s WALL (       7 calls)
     v_of_rho     :      0.36s CPU      0.37s WALL (       8 calls)
     newd         :      0.51s CPU      0.60s WALL (       8 calls)
     mix_rho      :      0.03s CPU      0.03s WALL (       7 calls)

     Called by c_bands:
     init_us_2    :      0.42s CPU      0.43s WALL (     960 calls)
     cegterg      :     13.89s CPU     14.24s WALL (     420 calls)

     Called by sum_band:
     sum_band:bec :      0.00s CPU      0.00s WALL (     420 calls)
     addusdens    :      0.54s CPU      0.64s WALL (       7 calls)

     Called by *egterg:
     h_psi        :     12.00s CPU     12.38s WALL (    1730 calls)
     s_psi        :      0.26s CPU      0.27s WALL (    1730 calls)
     g_psi        :      0.08s CPU      0.08s WALL (    1250 calls)
     cdiaghg      :      0.74s CPU      0.74s WALL (    1670 calls)

     Called by h_psi:
     h_psi:pot    :     11.85s CPU     12.23s WALL (    1730 calls)
     h_psi:calbec :      0.53s CPU      0.54s WALL (    1730 calls)
     vloc_psi     :     10.94s CPU     11.30s WALL (    1730 calls)
     add_vuspsi   :      0.38s CPU      0.39s WALL (    1730 calls)

     General routines
     calbec       :      0.67s CPU      0.68s WALL (    2210 calls)
     fft          :      0.18s CPU      0.19s WALL (     138 calls)
     ffts         :      0.01s CPU      0.01s WALL (      15 calls)
     fftw         :      9.86s CPU     10.20s WALL (   45624 calls)
     interpolate  :      0.04s CPU      0.04s WALL (      15 calls)
     davcio       :      0.00s CPU      0.01s WALL (      60 calls)

     Parallel routines
     fft_scatter  :      1.79s CPU      1.81s WALL (   45777 calls)

     PWSCF        :    20.64s CPU        21.43s WALL


   This run was terminated on:   1:35:22  23Nov2017            

=------------------------------------------------------------------------------=
   JOB DONE.
=------------------------------------------------------------------------------=
