
     Program PWSCF v.6.1 (svn rev. 13369) starts on 23Nov2017 at  1:43:20 

     This program is part of the open-source Quantum ESPRESSO suite
     for quantum simulation of materials; please cite
         "P. Giannozzi et al., J. Phys.:Condens. Matter 21 395502 (2009);
          URL http://www.quantum-espresso.org", 
     in publications or presentations arising from this work. More details at
     http://www.quantum-espresso.org/quote

     Parallel version (MPI), running on     4 processors
     R & G space division:  proc/nbgrp/npool/nimage =       4
     Waiting for input...
     Reading input from standard input
     Message from routine read_cards :
     DEPRECATED: no units specified in ATOMIC_POSITIONS card
     Message from routine read_cards :
     ATOMIC_POSITIONS: units set to alat

     Current dimensions of program PWSCF are:
     Max number of different atomic species (ntypx) = 10
     Max number of k-points (npk) =  40000
     Max angular momentum in pseudopotentials (lmaxx) =  3

     Subspace diagonalization in iterative solution of the eigenvalue problem:
     a serial algorithm will be used


     Parallelization info
     --------------------
     sticks:   dense  smooth     PW     G-vecs:    dense   smooth      PW
     Min         540     267     84                16574     5851    1003
     Max         541     268     85                16577     5855    1005
     Sum        2161    1069    337                66299    23409    4015



     bravais-lattice index     =            2
     lattice parameter (alat)  =      12.5200  a.u.
     unit-cell volume          =     490.6288 (a.u.)^3
     number of atoms/cell      =            2
     number of atomic types    =            1
     number of electrons       =        28.00
     number of Kohn-Sham states=           14
     kinetic-energy cutoff     =      50.0000  Ry
     charge density cutoff     =     400.0000  Ry
     convergence threshold     =      1.0E-08
     mixing beta               =       0.7000
     number of iterations used =            8  plain     mixing
     Exchange-correlation      =  SLA  PW   PBX  PBC ( 1  4  3  4 0 0)

     celldm(1)=  12.520000  celldm(2)=   0.000000  celldm(3)=   0.000000
     celldm(4)=   0.000000  celldm(5)=   0.000000  celldm(6)=   0.000000

     crystal axes: (cart. coord. in units of alat)
               a(1) = (  -0.500000   0.000000   0.500000 )  
               a(2) = (   0.000000   0.500000   0.500000 )  
               a(3) = (  -0.500000   0.500000   0.000000 )  

     reciprocal axes: (cart. coord. in units 2 pi/alat)
               b(1) = ( -1.000000 -1.000000  1.000000 )  
               b(2) = (  1.000000  1.000000  1.000000 )  
               b(3) = ( -1.000000  1.000000 -1.000000 )  


     PseudoPot. # 1 for Sn read from file:
     /home/s1333534/quantum_espresso/qe-6.1/pseudo/sn_pbe_v1.4.uspp.F.UPF
     MD5 check sum: 469debedee59599fedebd795477fea03
     Pseudo is Ultrasoft + core correction, Zval = 14.0
     Generated by new atomic code, or converted to UPF format
     Using radial grid of  891 points,  6 beta functions with: 
                l(1) =   0
                l(2) =   0
                l(3) =   1
                l(4) =   1
                l(5) =   2
                l(6) =   2
     Q(r) pseudized with  8 coefficients,  rinner =    1.350   1.350   1.350
                                                       1.350   1.350

     atomic species   valence    mass     pseudopotential
        Sn            14.00   118.71000     Sn( 1.00)

     48 Sym. Ops., with inversion, found (24 have fractional translation)



   Cartesian axes

     site n.     atom                  positions (alat units)
         1           Sn  tau(   1) = (   0.0000000   0.0000000   0.0000000  )
         2           Sn  tau(   2) = (   0.2500000   0.2500000   0.2500000  )

     number of k points=   770

     Number of k-points >= 100: set verbosity='high' to print them.

     Dense  grid:    66299 G-vectors     FFT dimensions: (  60,  60,  60)

     Smooth grid:    23409 G-vectors     FFT dimensions: (  40,  40,  40)

     Estimated max dynamical RAM per process >     132.58MB

     Estimated total allocated dynamical RAM >     530.34MB

     Initial potential from superposition of free atoms

     starting charge   25.99991, renormalised to   28.00000
     Starting wfc are   18 randomized atomic wfcs

     total cpu time spent up to now is       10.6 secs

     per-process dynamical memory:   142.2 Mb

     Self-consistent Calculation

     iteration #  1     ecut=    50.00 Ry     beta=0.70
     Davidson diagonalization with overlap
     ethr =  1.00E-02,  avg # of iterations =  2.7

     total cpu time spent up to now is       39.8 secs

     total energy              =    -317.48647322 Ry
     Harris-Foulkes estimate   =    -319.54658068 Ry
     estimated scf accuracy    <       2.51009838 Ry

     iteration #  2     ecut=    50.00 Ry     beta=0.70
     Davidson diagonalization with overlap
     ethr =  8.96E-03,  avg # of iterations =  3.0

     total cpu time spent up to now is       72.0 secs

     total energy              =    -318.39381770 Ry
     Harris-Foulkes estimate   =    -318.71177379 Ry
     estimated scf accuracy    <       0.47358861 Ry

     iteration #  3     ecut=    50.00 Ry     beta=0.70
     Davidson diagonalization with overlap
     ethr =  1.69E-03,  avg # of iterations =  2.0

     total cpu time spent up to now is      100.2 secs

     total energy              =    -318.48881072 Ry
     Harris-Foulkes estimate   =    -318.49038246 Ry
     estimated scf accuracy    <       0.00288002 Ry

     iteration #  4     ecut=    50.00 Ry     beta=0.70
     Davidson diagonalization with overlap
     ethr =  1.03E-05,  avg # of iterations =  2.9

     total cpu time spent up to now is      130.1 secs

     total energy              =    -318.48969907 Ry
     Harris-Foulkes estimate   =    -318.48981640 Ry
     estimated scf accuracy    <       0.00017394 Ry

     iteration #  5     ecut=    50.00 Ry     beta=0.70
     Davidson diagonalization with overlap
     ethr =  6.21E-07,  avg # of iterations =  3.0

     total cpu time spent up to now is      160.7 secs

     total energy              =    -318.48975226 Ry
     Harris-Foulkes estimate   =    -318.48975294 Ry
     estimated scf accuracy    <       0.00000144 Ry

     iteration #  6     ecut=    50.00 Ry     beta=0.70
     Davidson diagonalization with overlap
     ethr =  5.15E-09,  avg # of iterations =  4.0

     total cpu time spent up to now is      193.6 secs

     total energy              =    -318.48975303 Ry
     Harris-Foulkes estimate   =    -318.48975308 Ry
     estimated scf accuracy    <       0.00000008 Ry

     iteration #  7     ecut=    50.00 Ry     beta=0.70
     Davidson diagonalization with overlap
     ethr =  2.78E-10,  avg # of iterations =  3.1

     total cpu time spent up to now is      224.7 secs

     End of self-consistent calculation

     Number of k-points >= 100: set verbosity='high' to print the bands.

     highest occupied level (ev):     7.1555

!    total energy              =    -318.48975306 Ry
     Harris-Foulkes estimate   =    -318.48975306 Ry
     estimated scf accuracy    <          2.4E-09 Ry

     The total energy is the sum of the following terms:

     one-electron contribution =    -161.00664787 Ry
     hartree contribution      =      97.15108293 Ry
     xc contribution           =     -85.97405766 Ry
     ewald contribution        =    -168.66013046 Ry

     convergence has been achieved in   7 iterations


     Computing stress (Cartesian axis) and pressure

          total   stress  (Ry/bohr**3)                   (kbar)     P=  -13.59
  -0.00009236  -0.00000000  -0.00000000        -13.59     -0.00     -0.00
  -0.00000000  -0.00009236   0.00000000         -0.00    -13.59      0.00
  -0.00000000   0.00000000  -0.00009236         -0.00      0.00    -13.59


     Writing output data file sn.a.12.52.20.save

     init_run     :     10.22s CPU     10.55s WALL (       1 calls)
     electrons    :    208.14s CPU    214.14s WALL (       1 calls)
     stress       :      5.73s CPU      5.78s WALL (       1 calls)

     Called by init_run:
     wfcinit      :      9.70s CPU     10.01s WALL (       1 calls)
     potinit      :      0.07s CPU      0.07s WALL (       1 calls)

     Called by electrons:
     c_bands      :    178.48s CPU    183.51s WALL (       7 calls)
     sum_band     :     28.84s CPU     29.71s WALL (       7 calls)
     v_of_rho     :      0.37s CPU      0.38s WALL (       8 calls)
     newd         :      0.51s CPU      0.59s WALL (       8 calls)
     mix_rho      :      0.03s CPU      0.03s WALL (       7 calls)

     Called by c_bands:
     init_us_2    :      4.86s CPU      4.96s WALL (   12320 calls)
     cegterg      :    169.61s CPU    174.51s WALL (    5390 calls)

     Called by sum_band:
     sum_band:bec :      0.03s CPU      0.06s WALL (    5390 calls)
     addusdens    :      0.53s CPU      0.62s WALL (       7 calls)

     Called by *egterg:
     h_psi        :    147.14s CPU    151.92s WALL (   22067 calls)
     s_psi        :      2.64s CPU      2.67s WALL (   22067 calls)
     g_psi        :      0.97s CPU      0.97s WALL (   15907 calls)
     cdiaghg      :      9.30s CPU      9.35s WALL (   21297 calls)

     Called by h_psi:
     h_psi:pot    :    145.95s CPU    150.69s WALL (   22067 calls)
     h_psi:calbec :      6.08s CPU      6.24s WALL (   22067 calls)
     vloc_psi     :    136.60s CPU    141.06s WALL (   22067 calls)
     add_vuspsi   :      3.23s CPU      3.31s WALL (   22067 calls)

     General routines
     calbec       :      7.87s CPU      8.04s WALL (   28227 calls)
     fft          :      0.19s CPU      0.20s WALL (     138 calls)
     ffts         :      0.01s CPU      0.01s WALL (      15 calls)
     fftw         :    125.03s CPU    129.67s WALL (  585166 calls)
     interpolate  :      0.03s CPU      0.03s WALL (      15 calls)
     davcio       :      0.02s CPU      0.07s WALL (     770 calls)

     Parallel routines
     fft_scatter  :     21.52s CPU     20.82s WALL (  585319 calls)

     PWSCF        :  3m44.87s CPU     3m51.39s WALL


   This run was terminated on:   1:47:11  23Nov2017            

=------------------------------------------------------------------------------=
   JOB DONE.
=------------------------------------------------------------------------------=
