
     Program PWSCF v.6.1 (svn rev. 13369) starts on 23Nov2017 at  1:34:48 

     This program is part of the open-source Quantum ESPRESSO suite
     for quantum simulation of materials; please cite
         "P. Giannozzi et al., J. Phys.:Condens. Matter 21 395502 (2009);
          URL http://www.quantum-espresso.org", 
     in publications or presentations arising from this work. More details at
     http://www.quantum-espresso.org/quote

     Parallel version (MPI), running on     4 processors
     R & G space division:  proc/nbgrp/npool/nimage =       4
     Waiting for input...
     Reading input from standard input
     Message from routine read_cards :
     DEPRECATED: no units specified in ATOMIC_POSITIONS card
     Message from routine read_cards :
     ATOMIC_POSITIONS: units set to alat

     Current dimensions of program PWSCF are:
     Max number of different atomic species (ntypx) = 10
     Max number of k-points (npk) =  40000
     Max angular momentum in pseudopotentials (lmaxx) =  3

     Subspace diagonalization in iterative solution of the eigenvalue problem:
     a serial algorithm will be used


     Parallelization info
     --------------------
     sticks:   dense  smooth     PW     G-vecs:    dense   smooth      PW
     Min         540     267     78                16574     5851     958
     Max         541     268     79                16577     5855     963
     Sum        2161    1069    313                66299    23409    3839



     bravais-lattice index     =            2
     lattice parameter (alat)  =      12.5200  a.u.
     unit-cell volume          =     490.6288 (a.u.)^3
     number of atoms/cell      =            2
     number of atomic types    =            1
     number of electrons       =        28.00
     number of Kohn-Sham states=           14
     kinetic-energy cutoff     =      50.0000  Ry
     charge density cutoff     =     400.0000  Ry
     convergence threshold     =      1.0E-08
     mixing beta               =       0.7000
     number of iterations used =            8  plain     mixing
     Exchange-correlation      =  SLA  PW   PBX  PBC ( 1  4  3  4 0 0)

     celldm(1)=  12.520000  celldm(2)=   0.000000  celldm(3)=   0.000000
     celldm(4)=   0.000000  celldm(5)=   0.000000  celldm(6)=   0.000000

     crystal axes: (cart. coord. in units of alat)
               a(1) = (  -0.500000   0.000000   0.500000 )  
               a(2) = (   0.000000   0.500000   0.500000 )  
               a(3) = (  -0.500000   0.500000   0.000000 )  

     reciprocal axes: (cart. coord. in units 2 pi/alat)
               b(1) = ( -1.000000 -1.000000  1.000000 )  
               b(2) = (  1.000000  1.000000  1.000000 )  
               b(3) = ( -1.000000  1.000000 -1.000000 )  


     PseudoPot. # 1 for Sn read from file:
     /home/s1333534/quantum_espresso/qe-6.1/pseudo/sn_pbe_v1.4.uspp.F.UPF
     MD5 check sum: 469debedee59599fedebd795477fea03
     Pseudo is Ultrasoft + core correction, Zval = 14.0
     Generated by new atomic code, or converted to UPF format
     Using radial grid of  891 points,  6 beta functions with: 
                l(1) =   0
                l(2) =   0
                l(3) =   1
                l(4) =   1
                l(5) =   2
                l(6) =   2
     Q(r) pseudized with  8 coefficients,  rinner =    1.350   1.350   1.350
                                                       1.350   1.350

     atomic species   valence    mass     pseudopotential
        Sn            14.00   118.71000     Sn( 1.00)

     48 Sym. Ops., with inversion, found (24 have fractional translation)



   Cartesian axes

     site n.     atom                  positions (alat units)
         1           Sn  tau(   1) = (   0.0000000   0.0000000   0.0000000  )
         2           Sn  tau(   2) = (   0.2500000   0.2500000   0.2500000  )

     number of k points=    28
                       cart. coord. in units 2pi/alat
        k(    1) = (  -0.0833333   0.0833333   0.0833333), wk =   0.0185185
        k(    2) = (  -0.2500000   0.2500000  -0.0833333), wk =   0.0555556
        k(    3) = (  -0.4166667   0.4166667  -0.2500000), wk =   0.0555556
        k(    4) = (   0.4166667  -0.4166667   0.5833333), wk =   0.0555556
        k(    5) = (   0.2500000  -0.2500000   0.4166667), wk =   0.0555556
        k(    6) = (   0.0833333  -0.0833333   0.2500000), wk =   0.0555556
        k(    7) = (  -0.0833333   0.4166667   0.0833333), wk =   0.0555556
        k(    8) = (  -0.2500000   0.5833333  -0.0833333), wk =   0.1111111
        k(    9) = (   0.5833333  -0.2500000   0.7500000), wk =   0.1111111
        k(   10) = (   0.4166667  -0.0833333   0.5833333), wk =   0.1111111
        k(   11) = (   0.2500000   0.0833333   0.4166667), wk =   0.1111111
        k(   12) = (  -0.0833333   0.7500000   0.0833333), wk =   0.0555556
        k(   13) = (   0.7500000  -0.0833333   0.9166667), wk =   0.1111111
        k(   14) = (   0.5833333   0.0833333   0.7500000), wk =   0.1111111
        k(   15) = (   0.4166667   0.2500000   0.5833333), wk =   0.1111111
        k(   16) = (  -0.0833333  -0.9166667   0.0833333), wk =   0.0555556
        k(   17) = (  -0.2500000  -0.7500000  -0.0833333), wk =   0.1111111
        k(   18) = (  -0.0833333  -0.5833333   0.0833333), wk =   0.0555556
        k(   19) = (  -0.2500000   0.2500000   0.2500000), wk =   0.0185185
        k(   20) = (  -0.4166667   0.4166667   0.0833333), wk =   0.0555556
        k(   21) = (   0.4166667  -0.4166667   0.9166667), wk =   0.0555556
        k(   22) = (   0.2500000  -0.2500000   0.7500000), wk =   0.0555556
        k(   23) = (  -0.2500000   0.5833333   0.2500000), wk =   0.0555556
        k(   24) = (   0.5833333  -0.2500000   1.0833333), wk =   0.1111111
        k(   25) = (   0.4166667  -0.0833333   0.9166667), wk =   0.1111111
        k(   26) = (  -0.2500000  -1.0833333   0.2500000), wk =   0.0555556
        k(   27) = (  -0.4166667   0.4166667   0.4166667), wk =   0.0185185
        k(   28) = (   0.4166667  -0.4166667   1.2500000), wk =   0.0555556

     Dense  grid:    66299 G-vectors     FFT dimensions: (  60,  60,  60)

     Smooth grid:    23409 G-vectors     FFT dimensions: (  40,  40,  40)

     Estimated max dynamical RAM per process >      16.56MB

     Estimated total allocated dynamical RAM >      66.22MB

     Initial potential from superposition of free atoms

     starting charge   25.99991, renormalised to   28.00000
     Starting wfc are   18 randomized atomic wfcs

     total cpu time spent up to now is        1.1 secs

     per-process dynamical memory:    20.3 Mb

     Self-consistent Calculation

     iteration #  1     ecut=    50.00 Ry     beta=0.70
     Davidson diagonalization with overlap
     ethr =  1.00E-02,  avg # of iterations =  2.6

     total cpu time spent up to now is        2.6 secs

     total energy              =    -317.48643154 Ry
     Harris-Foulkes estimate   =    -319.54646624 Ry
     estimated scf accuracy    <       2.51002254 Ry

     iteration #  2     ecut=    50.00 Ry     beta=0.70
     Davidson diagonalization with overlap
     ethr =  8.96E-03,  avg # of iterations =  3.0

     total cpu time spent up to now is        4.0 secs

     total energy              =    -318.39371118 Ry
     Harris-Foulkes estimate   =    -318.71142151 Ry
     estimated scf accuracy    <       0.47328728 Ry

     iteration #  3     ecut=    50.00 Ry     beta=0.70
     Davidson diagonalization with overlap
     ethr =  1.69E-03,  avg # of iterations =  2.0

     total cpu time spent up to now is        5.3 secs

     total energy              =    -318.48867569 Ry
     Harris-Foulkes estimate   =    -318.49025365 Ry
     estimated scf accuracy    <       0.00289291 Ry

     iteration #  4     ecut=    50.00 Ry     beta=0.70
     Davidson diagonalization with overlap
     ethr =  1.03E-05,  avg # of iterations =  3.1

     total cpu time spent up to now is        6.7 secs

     total energy              =    -318.48957015 Ry
     Harris-Foulkes estimate   =    -318.48968601 Ry
     estimated scf accuracy    <       0.00017184 Ry

     iteration #  5     ecut=    50.00 Ry     beta=0.70
     Davidson diagonalization with overlap
     ethr =  6.14E-07,  avg # of iterations =  3.0

     total cpu time spent up to now is        8.0 secs

     total energy              =    -318.48962229 Ry
     Harris-Foulkes estimate   =    -318.48962285 Ry
     estimated scf accuracy    <       0.00000128 Ry

     iteration #  6     ecut=    50.00 Ry     beta=0.70
     Davidson diagonalization with overlap
     ethr =  4.56E-09,  avg # of iterations =  4.1

     total cpu time spent up to now is        9.5 secs

     total energy              =    -318.48962305 Ry
     Harris-Foulkes estimate   =    -318.48962310 Ry
     estimated scf accuracy    <       0.00000008 Ry

     iteration #  7     ecut=    50.00 Ry     beta=0.70
     Davidson diagonalization with overlap
     ethr =  2.91E-10,  avg # of iterations =  3.1

     total cpu time spent up to now is       10.9 secs

     End of self-consistent calculation

          k =-0.0833 0.0833 0.0833 (  2906 PWs)   bands (ev):

   -14.5067 -14.5067 -14.5004 -14.4460 -14.4460 -14.2045 -14.2045 -14.1919
   -14.1755 -14.1755  -3.0591   5.3309   7.0412   7.0412

          k =-0.2500 0.2500-0.0833 (  2906 PWs)   bands (ev):

   -14.5239 -14.5184 -14.4930 -14.4292 -14.4185 -14.2359 -14.2231 -14.1925
   -14.1666 -14.1527  -2.7295   3.6988   5.9961   6.8054

          k =-0.4167 0.4167-0.2500 (  2925 PWs)   bands (ev):

   -14.5350 -14.5348 -14.4751 -14.4085 -14.3965 -14.2537 -14.2392 -14.2201
   -14.1454 -14.1419  -2.0022   1.7684   5.4837   6.2398

          k = 0.4167-0.4167 0.5833 (  2928 PWs)   bands (ev):

   -14.5410 -14.5342 -14.4697 -14.3978 -14.3962 -14.2538 -14.2485 -14.2261
   -14.1439 -14.1373  -1.5869   1.0248   5.4655   5.9356

          k = 0.2500-0.2500 0.4167 (  2927 PWs)   bands (ev):

   -14.5344 -14.5270 -14.4841 -14.4140 -14.3997 -14.2577 -14.2314 -14.2068
   -14.1540 -14.1431  -2.2691   2.3533   5.8711   6.0350

          k = 0.0833-0.0833 0.2500 (  2906 PWs)   bands (ev):

   -14.5159 -14.5121 -14.5012 -14.4387 -14.4252 -14.2353 -14.2053 -14.1867
   -14.1739 -14.1614  -2.8919   4.3988   6.5149   6.5337

          k =-0.0833 0.4167 0.0833 (  2917 PWs)   bands (ev):

   -14.5263 -14.5212 -14.5005 -14.4231 -14.3928 -14.2750 -14.2176 -14.1796
   -14.1638 -14.1535  -2.5604   3.3292   5.8336   5.9147

          k =-0.2500 0.5833-0.0833 (  2932 PWs)   bands (ev):

   -14.5438 -14.5371 -14.4731 -14.3983 -14.3622 -14.3067 -14.2432 -14.2089
   -14.1425 -14.1343  -1.9382   1.9548   4.8756   5.5721

          k = 0.5833-0.2500 0.7500 (  2938 PWs)   bands (ev):

   -14.5587 -14.5437 -14.4422 -14.3761 -14.3619 -14.3010 -14.2715 -14.2419
   -14.1329 -14.1179  -1.2409   0.8366   4.3571   5.4148

          k = 0.4167-0.0833 0.5833 (  2937 PWs)   bands (ev):

   -14.5518 -14.5430 -14.4500 -14.3958 -14.3661 -14.2921 -14.2496 -14.2410
   -14.1332 -14.1268  -1.6858   1.5032   4.4215   5.7640

          k = 0.2500 0.0833 0.4167 (  2918 PWs)   bands (ev):

   -14.5331 -14.5281 -14.4847 -14.4181 -14.3946 -14.2670 -14.2271 -14.2001
   -14.1553 -14.1440  -2.4087   2.8376   5.3884   6.2472

          k =-0.0833 0.7500 0.0833 (  2923 PWs)   bands (ev):

   -14.5450 -14.5410 -14.4715 -14.3695 -14.3632 -14.3132 -14.2689 -14.2051
   -14.1364 -14.1320  -1.4313   1.2135   4.8548   5.0585

          k = 0.7500-0.0833 0.9167 (  2924 PWs)   bands (ev):

   -14.5578 -14.5498 -14.4281 -14.3848 -14.3380 -14.3029 -14.2908 -14.2494
   -14.1252 -14.1170  -0.6252   0.2306   4.3225   4.8059

          k = 0.5833 0.0833 0.7500 (  2938 PWs)   bands (ev):

   -14.5644 -14.5483 -14.4271 -14.3566 -14.3398 -14.3250 -14.2949 -14.2521
   -14.1270 -14.1113  -0.9421   0.5798   3.9885   5.2105

          k = 0.4167 0.2500 0.5833 (  2930 PWs)   bands (ev):

   -14.5476 -14.5378 -14.4600 -14.3968 -14.3819 -14.2735 -14.2489 -14.2320
   -14.1400 -14.1300  -1.6383   1.2469   4.9212   5.8207

          k =-0.0833-0.9167 0.0833 (  2935 PWs)   bands (ev):

   -14.5504 -14.5463 -14.4430 -14.4050 -14.3365 -14.3021 -14.2730 -14.2346
   -14.1292 -14.1252  -0.6587   0.2352   4.6509   4.8776

          k =-0.2500-0.7500-0.0833 (  2936 PWs)   bands (ev):

   -14.5531 -14.5450 -14.4539 -14.3705 -14.3483 -14.3252 -14.2705 -14.2253
   -14.1319 -14.1236  -1.3331   1.0761   4.5118   5.0678

          k =-0.0833-0.5833 0.0833 (  2917 PWs)   bands (ev):

   -14.5363 -14.5319 -14.4912 -14.3990 -14.3545 -14.3186 -14.2400 -14.1849
   -14.1492 -14.1433  -2.0703   2.2550   5.2555   5.4115

          k =-0.2500 0.2500 0.2500 (  2914 PWs)   bands (ev):

   -14.5241 -14.5241 -14.4907 -14.4192 -14.4192 -14.2310 -14.2310 -14.2042
   -14.1550 -14.1550  -2.5739   3.0867   6.4790   6.4790

          k =-0.4167 0.4167 0.0833 (  2921 PWs)   bands (ev):

   -14.5400 -14.5377 -14.4661 -14.4110 -14.3868 -14.2654 -14.2402 -14.2236
   -14.1414 -14.1379  -2.1122   2.1796   4.8469   6.3079

          k = 0.4167-0.4167 0.9167 (  2938 PWs)   bands (ev):

   -14.5604 -14.5445 -14.4370 -14.3796 -14.3596 -14.2886 -14.2839 -14.2468
   -14.1309 -14.1167  -1.3388   1.0250   4.0971   5.6921

          k = 0.2500-0.2500 0.7500 (  2931 PWs)   bands (ev):

   -14.5579 -14.5412 -14.4511 -14.3718 -14.3472 -14.3237 -14.2706 -14.2291
   -14.1358 -14.1184  -1.2888   0.9567   4.3858   5.3261

          k =-0.2500 0.5833 0.2500 (  2939 PWs)   bands (ev):

   -14.5472 -14.5336 -14.4706 -14.3976 -14.3737 -14.2916 -14.2455 -14.2140
   -14.1462 -14.1305  -1.8301   1.6386   5.0367   5.6262

          k = 0.5833-0.2500 1.0833 (  2933 PWs)   bands (ev):

   -14.5597 -14.5494 -14.4317 -14.3709 -14.3391 -14.3265 -14.2768 -14.2496
   -14.1261 -14.1165  -1.1567   0.8416   4.1776   5.1037

          k = 0.4167-0.0833 0.9167 (  2940 PWs)   bands (ev):

   -14.5628 -14.5554 -14.4089 -14.3624 -14.3417 -14.3116 -14.3036 -14.2673
   -14.1197 -14.1124  -0.5894   0.2236   4.1219   4.6485

          k =-0.2500-1.0833 0.2500 (  2925 PWs)   bands (ev):

   -14.5638 -14.5461 -14.4325 -14.3555 -14.3416 -14.3185 -14.3004 -14.2457
   -14.1289 -14.1112  -0.7454   0.3590   4.0319   5.1691

          k =-0.4167 0.4167 0.4167 (  2935 PWs)   bands (ev):

   -14.5326 -14.5326 -14.4801 -14.4036 -14.4036 -14.2440 -14.2440 -14.2172
   -14.1465 -14.1465  -1.8080   1.3179   6.1059   6.1059

          k = 0.4167-0.4167 1.2500 (  2930 PWs)   bands (ev):

   -14.5529 -14.5401 -14.4507 -14.3874 -14.3799 -14.2689 -14.2674 -14.2394
   -14.1363 -14.1244  -1.4168   0.9553   4.6346   5.7817

     highest occupied level (ev):     7.0412

!    total energy              =    -318.48962308 Ry
     Harris-Foulkes estimate   =    -318.48962308 Ry
     estimated scf accuracy    <          2.0E-09 Ry

     The total energy is the sum of the following terms:

     one-electron contribution =    -161.00778483 Ry
     hartree contribution      =      97.15249871 Ry
     xc contribution           =     -85.97420651 Ry
     ewald contribution        =    -168.66013046 Ry

     convergence has been achieved in   7 iterations


     Computing stress (Cartesian axis) and pressure

          total   stress  (Ry/bohr**3)                   (kbar)     P=  -13.62
  -0.00009258   0.00000000   0.00000000        -13.62      0.00      0.00
   0.00000000  -0.00009258  -0.00000000          0.00    -13.62     -0.00
   0.00000000  -0.00000000  -0.00009258          0.00     -0.00    -13.62


     Writing output data file sn.a.12.52.6.save

     init_run     :      0.85s CPU      0.95s WALL (       1 calls)
     electrons    :      9.43s CPU      9.87s WALL (       1 calls)
     stress       :      0.76s CPU      0.79s WALL (       1 calls)

     Called by init_run:
     wfcinit      :      0.36s CPU      0.42s WALL (       1 calls)
     potinit      :      0.07s CPU      0.07s WALL (       1 calls)

     Called by electrons:
     c_bands      :      6.95s CPU      7.19s WALL (       7 calls)
     sum_band     :      1.64s CPU      1.76s WALL (       7 calls)
     v_of_rho     :      0.38s CPU      0.39s WALL (       8 calls)
     newd         :      0.50s CPU      0.57s WALL (       8 calls)
     mix_rho      :      0.03s CPU      0.05s WALL (       7 calls)

     Called by c_bands:
     init_us_2    :      0.20s CPU      0.21s WALL (     448 calls)
     cegterg      :      6.61s CPU      6.84s WALL (     196 calls)

     Called by sum_band:
     sum_band:bec :      0.00s CPU      0.00s WALL (     196 calls)
     addusdens    :      0.55s CPU      0.64s WALL (       7 calls)

     Called by *egterg:
     h_psi        :      5.68s CPU      5.92s WALL (     808 calls)
     s_psi        :      0.12s CPU      0.12s WALL (     808 calls)
     g_psi        :      0.04s CPU      0.04s WALL (     584 calls)
     cdiaghg      :      0.35s CPU      0.38s WALL (     780 calls)

     Called by h_psi:
     h_psi:pot    :      5.61s CPU      5.85s WALL (     808 calls)
     h_psi:calbec :      0.23s CPU      0.25s WALL (     808 calls)
     vloc_psi     :      5.22s CPU      5.42s WALL (     808 calls)
     add_vuspsi   :      0.16s CPU      0.18s WALL (     808 calls)

     General routines
     calbec       :      0.29s CPU      0.31s WALL (    1032 calls)
     fft          :      0.21s CPU      0.23s WALL (     138 calls)
     ffts         :      0.01s CPU      0.01s WALL (      15 calls)
     fftw         :      4.73s CPU      4.88s WALL (   21296 calls)
     interpolate  :      0.04s CPU      0.04s WALL (      15 calls)
     davcio       :      0.00s CPU      0.00s WALL (      28 calls)

     Parallel routines
     fft_scatter  :      0.96s CPU      1.03s WALL (   21449 calls)

     PWSCF        :    11.15s CPU        11.78s WALL


   This run was terminated on:   1:35: 0  23Nov2017            

=------------------------------------------------------------------------------=
   JOB DONE.
=------------------------------------------------------------------------------=
