
     Program PWSCF v.6.1 (svn rev. 13369) starts on 23Nov2017 at  1:40:30 

     This program is part of the open-source Quantum ESPRESSO suite
     for quantum simulation of materials; please cite
         "P. Giannozzi et al., J. Phys.:Condens. Matter 21 395502 (2009);
          URL http://www.quantum-espresso.org", 
     in publications or presentations arising from this work. More details at
     http://www.quantum-espresso.org/quote

     Parallel version (MPI), running on     4 processors
     R & G space division:  proc/nbgrp/npool/nimage =       4
     Waiting for input...
     Reading input from standard input
     Message from routine read_cards :
     DEPRECATED: no units specified in ATOMIC_POSITIONS card
     Message from routine read_cards :
     ATOMIC_POSITIONS: units set to alat

     Current dimensions of program PWSCF are:
     Max number of different atomic species (ntypx) = 10
     Max number of k-points (npk) =  40000
     Max angular momentum in pseudopotentials (lmaxx) =  3

     Subspace diagonalization in iterative solution of the eigenvalue problem:
     a serial algorithm will be used


     Parallelization info
     --------------------
     sticks:   dense  smooth     PW     G-vecs:    dense   smooth      PW
     Min         540     267     84                16574     5851    1003
     Max         541     268     85                16577     5855    1005
     Sum        2161    1069    337                66299    23409    4015



     bravais-lattice index     =            2
     lattice parameter (alat)  =      12.5200  a.u.
     unit-cell volume          =     490.6288 (a.u.)^3
     number of atoms/cell      =            2
     number of atomic types    =            1
     number of electrons       =        28.00
     number of Kohn-Sham states=           14
     kinetic-energy cutoff     =      50.0000  Ry
     charge density cutoff     =     400.0000  Ry
     convergence threshold     =      1.0E-08
     mixing beta               =       0.7000
     number of iterations used =            8  plain     mixing
     Exchange-correlation      =  SLA  PW   PBX  PBC ( 1  4  3  4 0 0)

     celldm(1)=  12.520000  celldm(2)=   0.000000  celldm(3)=   0.000000
     celldm(4)=   0.000000  celldm(5)=   0.000000  celldm(6)=   0.000000

     crystal axes: (cart. coord. in units of alat)
               a(1) = (  -0.500000   0.000000   0.500000 )  
               a(2) = (   0.000000   0.500000   0.500000 )  
               a(3) = (  -0.500000   0.500000   0.000000 )  

     reciprocal axes: (cart. coord. in units 2 pi/alat)
               b(1) = ( -1.000000 -1.000000  1.000000 )  
               b(2) = (  1.000000  1.000000  1.000000 )  
               b(3) = ( -1.000000  1.000000 -1.000000 )  


     PseudoPot. # 1 for Sn read from file:
     /home/s1333534/quantum_espresso/qe-6.1/pseudo/sn_pbe_v1.4.uspp.F.UPF
     MD5 check sum: 469debedee59599fedebd795477fea03
     Pseudo is Ultrasoft + core correction, Zval = 14.0
     Generated by new atomic code, or converted to UPF format
     Using radial grid of  891 points,  6 beta functions with: 
                l(1) =   0
                l(2) =   0
                l(3) =   1
                l(4) =   1
                l(5) =   2
                l(6) =   2
     Q(r) pseudized with  8 coefficients,  rinner =    1.350   1.350   1.350
                                                       1.350   1.350

     atomic species   valence    mass     pseudopotential
        Sn            14.00   118.71000     Sn( 1.00)

     48 Sym. Ops., with inversion, found (24 have fractional translation)



   Cartesian axes

     site n.     atom                  positions (alat units)
         1           Sn  tau(   1) = (   0.0000000   0.0000000   0.0000000  )
         2           Sn  tau(   2) = (   0.2500000   0.2500000   0.2500000  )

     number of k points=   570

     Number of k-points >= 100: set verbosity='high' to print them.

     Dense  grid:    66299 G-vectors     FFT dimensions: (  60,  60,  60)

     Smooth grid:    23409 G-vectors     FFT dimensions: (  40,  40,  40)

     Estimated max dynamical RAM per process >     101.31MB

     Estimated total allocated dynamical RAM >     405.24MB

     Initial potential from superposition of free atoms

     starting charge   25.99991, renormalised to   28.00000
     Starting wfc are   18 randomized atomic wfcs

     total cpu time spent up to now is        7.9 secs

     per-process dynamical memory:   109.5 Mb

     Self-consistent Calculation

     iteration #  1     ecut=    50.00 Ry     beta=0.70
     Davidson diagonalization with overlap
     ethr =  1.00E-02,  avg # of iterations =  2.7

     total cpu time spent up to now is       29.3 secs

     total energy              =    -317.48645524 Ry
     Harris-Foulkes estimate   =    -319.54658551 Ry
     estimated scf accuracy    <       2.51012261 Ry

     iteration #  2     ecut=    50.00 Ry     beta=0.70
     Davidson diagonalization with overlap
     ethr =  8.96E-03,  avg # of iterations =  3.0

     total cpu time spent up to now is       52.9 secs

     total energy              =    -318.39382036 Ry
     Harris-Foulkes estimate   =    -318.71180675 Ry
     estimated scf accuracy    <       0.47362628 Ry

     iteration #  3     ecut=    50.00 Ry     beta=0.70
     Davidson diagonalization with overlap
     ethr =  1.69E-03,  avg # of iterations =  2.0

     total cpu time spent up to now is       73.4 secs

     total energy              =    -318.48880816 Ry
     Harris-Foulkes estimate   =    -318.49037989 Ry
     estimated scf accuracy    <       0.00287994 Ry

     iteration #  4     ecut=    50.00 Ry     beta=0.70
     Davidson diagonalization with overlap
     ethr =  1.03E-05,  avg # of iterations =  2.9

     total cpu time spent up to now is       95.3 secs

     total energy              =    -318.48969740 Ry
     Harris-Foulkes estimate   =    -318.48981503 Ry
     estimated scf accuracy    <       0.00017435 Ry

     iteration #  5     ecut=    50.00 Ry     beta=0.70
     Davidson diagonalization with overlap
     ethr =  6.23E-07,  avg # of iterations =  3.0

     total cpu time spent up to now is      117.6 secs

     total energy              =    -318.48975070 Ry
     Harris-Foulkes estimate   =    -318.48975141 Ry
     estimated scf accuracy    <       0.00000147 Ry

     iteration #  6     ecut=    50.00 Ry     beta=0.70
     Davidson diagonalization with overlap
     ethr =  5.24E-09,  avg # of iterations =  4.0

     total cpu time spent up to now is      141.9 secs

     total energy              =    -318.48975149 Ry
     Harris-Foulkes estimate   =    -318.48975154 Ry
     estimated scf accuracy    <       0.00000008 Ry

     iteration #  7     ecut=    50.00 Ry     beta=0.70
     Davidson diagonalization with overlap
     ethr =  2.68E-10,  avg # of iterations =  3.1

     total cpu time spent up to now is      164.7 secs

     End of self-consistent calculation

     Number of k-points >= 100: set verbosity='high' to print the bands.

     highest occupied level (ev):     7.1526

!    total energy              =    -318.48975152 Ry
     Harris-Foulkes estimate   =    -318.48975152 Ry
     estimated scf accuracy    <          2.5E-09 Ry

     The total energy is the sum of the following terms:

     one-electron contribution =    -161.00664228 Ry
     hartree contribution      =      97.15107764 Ry
     xc contribution           =     -85.97405643 Ry
     ewald contribution        =    -168.66013046 Ry

     convergence has been achieved in   7 iterations


     Computing stress (Cartesian axis) and pressure

          total   stress  (Ry/bohr**3)                   (kbar)     P=  -13.60
  -0.00009246  -0.00000000  -0.00000000        -13.60     -0.00     -0.00
  -0.00000000  -0.00009246   0.00000000         -0.00    -13.60      0.00
  -0.00000000   0.00000000  -0.00009246         -0.00      0.00    -13.60


     Writing output data file sn.a.12.52.18.save

     init_run     :      7.62s CPU      7.86s WALL (       1 calls)
     electrons    :    152.04s CPU    156.75s WALL (       1 calls)
     stress       :      4.37s CPU      4.43s WALL (       1 calls)

     Called by init_run:
     wfcinit      :      7.11s CPU      7.34s WALL (       1 calls)
     potinit      :      0.06s CPU      0.06s WALL (       1 calls)

     Called by electrons:
     c_bands      :    130.67s CPU    134.66s WALL (       7 calls)
     sum_band     :     20.51s CPU     21.17s WALL (       7 calls)
     v_of_rho     :      0.37s CPU      0.38s WALL (       8 calls)
     newd         :      0.54s CPU      0.60s WALL (       8 calls)
     mix_rho      :      0.03s CPU      0.03s WALL (       7 calls)

     Called by c_bands:
     init_us_2    :      3.51s CPU      3.57s WALL (    9120 calls)
     cegterg      :    124.05s CPU    127.95s WALL (    3990 calls)

     Called by sum_band:
     sum_band:bec :      0.02s CPU      0.04s WALL (    3990 calls)
     addusdens    :      0.53s CPU      0.63s WALL (       7 calls)

     Called by *egterg:
     h_psi        :    107.45s CPU    111.23s WALL (   16344 calls)
     s_psi        :      1.97s CPU      2.00s WALL (   16344 calls)
     g_psi        :      0.71s CPU      0.72s WALL (   11784 calls)
     cdiaghg      :      6.92s CPU      6.96s WALL (   15774 calls)

     Called by h_psi:
     h_psi:pot    :    106.61s CPU    110.36s WALL (   16344 calls)
     h_psi:calbec :      4.52s CPU      4.61s WALL (   16344 calls)
     vloc_psi     :     99.71s CPU    103.28s WALL (   16344 calls)
     add_vuspsi   :      2.36s CPU      2.41s WALL (   16344 calls)

     General routines
     calbec       :      5.83s CPU      5.93s WALL (   20904 calls)
     fft          :      0.19s CPU      0.21s WALL (     138 calls)
     ffts         :      0.01s CPU      0.01s WALL (      15 calls)
     fftw         :     92.79s CPU     96.60s WALL (  433310 calls)
     interpolate  :      0.03s CPU      0.03s WALL (      15 calls)
     davcio       :      0.01s CPU      0.07s WALL (     570 calls)

     Parallel routines
     fft_scatter  :     16.23s CPU     15.70s WALL (  433463 calls)

     PWSCF        :  2m44.63s CPU     2m49.79s WALL


   This run was terminated on:   1:43:19  23Nov2017            

=------------------------------------------------------------------------------=
   JOB DONE.
=------------------------------------------------------------------------------=
