
     Program PWSCF v.6.1 (svn rev. 13369) starts on 13Nov2017 at  1:30:39 

     This program is part of the open-source Quantum ESPRESSO suite
     for quantum simulation of materials; please cite
         "P. Giannozzi et al., J. Phys.:Condens. Matter 21 395502 (2009);
          URL http://www.quantum-espresso.org", 
     in publications or presentations arising from this work. More details at
     http://www.quantum-espresso.org/quote

     Parallel version (MPI), running on     4 processors
     R & G space division:  proc/nbgrp/npool/nimage =       4
     Waiting for input...
     Reading input from standard input

     Current dimensions of program PWSCF are:
     Max number of different atomic species (ntypx) = 10
     Max number of k-points (npk) =  40000
     Max angular momentum in pseudopotentials (lmaxx) =  3

     Subspace diagonalization in iterative solution of the eigenvalue problem:
     a serial algorithm will be used


     Parallelization info
     --------------------
     sticks:   dense  smooth     PW     G-vecs:    dense   smooth      PW
     Min        1173     471    188                16283     4148    1072
     Max        1174     472    189                16284     4149    1073
     Sum        4693    1885    753                65133    16593    4289



     bravais-lattice index     =            0
     lattice parameter (alat)  =      11.0000  a.u.
     unit-cell volume          =     345.8405 (a.u.)^3
     number of atoms/cell      =            2
     number of atomic types    =            1
     number of electrons       =        28.00
     number of Kohn-Sham states=           18
     kinetic-energy cutoff     =      50.0000  Ry
     charge density cutoff     =     500.0000  Ry
     convergence threshold     =      1.0E-08
     mixing beta               =       0.7000
     number of iterations used =            8  plain     mixing
     Exchange-correlation      =  SLA  PW   PBX  PBC ( 1  4  3  4 0 0)

     celldm(1)=  11.000000  celldm(2)=   0.000000  celldm(3)=   0.000000
     celldm(4)=   0.000000  celldm(5)=   0.000000  celldm(6)=   0.000000

     crystal axes: (cart. coord. in units of alat)
               a(1) = (   0.986837   0.000000   0.000000 )  
               a(2) = (   0.000000   0.986837   0.000000 )  
               a(3) = (   0.493419   0.493419   0.266813 )  

     reciprocal axes: (cart. coord. in units 2 pi/alat)
               b(1) = (  1.013339  0.000000 -1.873974 )  
               b(2) = (  0.000000  1.013339 -1.873974 )  
               b(3) = (  0.000000  0.000000  3.747943 )  


     PseudoPot. # 1 for Sn read from file:
     /home/s1333534/quantum_espresso/qe-6.1/pseudo/sn_pbe_v1.4.uspp.F.UPF
     MD5 check sum: 469debedee59599fedebd795477fea03
     Pseudo is Ultrasoft + core correction, Zval = 14.0
     Generated by new atomic code, or converted to UPF format
     Using radial grid of  891 points,  6 beta functions with: 
                l(1) =   0
                l(2) =   0
                l(3) =   1
                l(4) =   1
                l(5) =   2
                l(6) =   2
     Q(r) pseudized with  8 coefficients,  rinner =    1.350   1.350   1.350
                                                       1.350   1.350

     atomic species   valence    mass     pseudopotential
        Sn            14.00   118.71000     Sn( 1.00)

     No symmetry found



   Cartesian axes

     site n.     atom                  positions (alat units)
         1           Sn  tau(   1) = (   1.0725850   1.3160481   0.0533919  )
         2           Sn  tau(   2) = (   0.5198369   0.2763739   0.0177973  )

     number of k points=   448  Marzari-Vanderbilt smearing, width (Ry)=  0.0200

     Number of k-points >= 100: set verbosity='high' to print them.

     Dense  grid:    65133 G-vectors     FFT dimensions: (  80,  80,  60)

     Smooth grid:    16593 G-vectors     FFT dimensions: (  50,  50,  40)

     Estimated max dynamical RAM per process >      78.24MB

     Estimated total allocated dynamical RAM >     312.96MB

     Initial potential from superposition of free atoms

     starting charge   25.99991, renormalised to   28.00000
     Starting wfc are   18 randomized atomic wfcs

     total cpu time spent up to now is       11.8 secs

     per-process dynamical memory:    87.5 Mb

     Self-consistent Calculation

     iteration #  1     ecut=    50.00 Ry     beta=0.70
     Davidson diagonalization with overlap
     ethr =  1.00E-02,  avg # of iterations =  4.0

     total cpu time spent up to now is       55.7 secs

     total energy              =    -317.50288082 Ry
     Harris-Foulkes estimate   =    -319.43720444 Ry
     estimated scf accuracy    <       2.36951117 Ry

     iteration #  2     ecut=    50.00 Ry     beta=0.70
     Davidson diagonalization with overlap
     ethr =  8.46E-03,  avg # of iterations =  2.5

     total cpu time spent up to now is       93.6 secs

     total energy              =    -318.33994728 Ry
     Harris-Foulkes estimate   =    -318.63206864 Ry
     estimated scf accuracy    <       0.42990208 Ry

     iteration #  3     ecut=    50.00 Ry     beta=0.70
     Davidson diagonalization with overlap
     ethr =  1.54E-03,  avg # of iterations =  2.0

     total cpu time spent up to now is      130.5 secs

     total energy              =    -318.42902088 Ry
     Harris-Foulkes estimate   =    -318.43067286 Ry
     estimated scf accuracy    <       0.00281157 Ry

     iteration #  4     ecut=    50.00 Ry     beta=0.70
     Davidson diagonalization with overlap
     ethr =  1.00E-05,  avg # of iterations =  3.6

     total cpu time spent up to now is      172.2 secs

     total energy              =    -318.42961915 Ry
     Harris-Foulkes estimate   =    -318.42976931 Ry
     estimated scf accuracy    <       0.00030144 Ry

     iteration #  5     ecut=    50.00 Ry     beta=0.70
     Davidson diagonalization with overlap
     ethr =  1.08E-06,  avg # of iterations =  2.6

     total cpu time spent up to now is      204.0 secs

     total energy              =    -318.42966632 Ry
     Harris-Foulkes estimate   =    -318.42967622 Ry
     estimated scf accuracy    <       0.00001716 Ry

     iteration #  6     ecut=    50.00 Ry     beta=0.70
     Davidson diagonalization with overlap
     ethr =  6.13E-08,  avg # of iterations =  3.0

     total cpu time spent up to now is      243.8 secs

     total energy              =    -318.42967270 Ry
     Harris-Foulkes estimate   =    -318.42967307 Ry
     estimated scf accuracy    <       0.00000081 Ry

     iteration #  7     ecut=    50.00 Ry     beta=0.70
     Davidson diagonalization with overlap
     ethr =  2.90E-09,  avg # of iterations =  2.9

     total cpu time spent up to now is      279.9 secs

     total energy              =    -318.42967282 Ry
     Harris-Foulkes estimate   =    -318.42967293 Ry
     estimated scf accuracy    <       0.00000017 Ry

     iteration #  8     ecut=    50.00 Ry     beta=0.70
     Davidson diagonalization with overlap
     ethr =  5.90E-10,  avg # of iterations =  2.9

     total cpu time spent up to now is      318.1 secs

     End of self-consistent calculation

     Number of k-points >= 100: set verbosity='high' to print the bands.

     the Fermi energy is    11.6395 ev

!    total energy              =    -318.42967287 Ry
     Harris-Foulkes estimate   =    -318.42967287 Ry
     estimated scf accuracy    <          4.6E-09 Ry

     The total energy is the sum of the following terms:

     one-electron contribution =    -110.23066466 Ry
     hartree contribution      =      76.35782144 Ry
     xc contribution           =     -86.14339361 Ry
     ewald contribution        =    -198.41351949 Ry
     smearing contrib. (-TS)   =       0.00008345 Ry

     convergence has been achieved in   8 iterations

     Writing output data file sn.beta.11.00.save

     init_run     :     11.41s CPU     11.68s WALL (       1 calls)
     electrons    :    299.50s CPU    306.41s WALL (       1 calls)

     Called by init_run:
     wfcinit      :     10.36s CPU     10.61s WALL (       1 calls)
     potinit      :      0.29s CPU      0.29s WALL (       1 calls)

     Called by electrons:
     c_bands      :    249.88s CPU    255.56s WALL (       8 calls)
     sum_band     :     47.98s CPU     49.05s WALL (       8 calls)
     v_of_rho     :      0.86s CPU      0.90s WALL (       9 calls)
     newd         :      0.81s CPU      0.89s WALL (       9 calls)
     mix_rho      :      0.08s CPU      0.08s WALL (       8 calls)

     Called by c_bands:
     init_us_2    :      2.43s CPU      2.48s WALL (    7616 calls)
     cegterg      :    245.30s CPU    250.89s WALL (    3584 calls)

     Called by sum_band:
     sum_band:bec :      0.04s CPU      0.05s WALL (    3584 calls)
     addusdens    :      0.92s CPU      1.03s WALL (       8 calls)

     Called by *egterg:
     h_psi        :    230.67s CPU    236.07s WALL (   14574 calls)
     s_psi        :      1.92s CPU      1.95s WALL (   14574 calls)
     g_psi        :      0.50s CPU      0.51s WALL (   10542 calls)
     cdiaghg      :      9.32s CPU      9.45s WALL (   14126 calls)

     Called by h_psi:
     h_psi:pot    :    229.41s CPU    234.79s WALL (   14574 calls)
     h_psi:calbec :      3.83s CPU      3.91s WALL (   14574 calls)
     vloc_psi     :    222.61s CPU    227.83s WALL (   14574 calls)
     add_vuspsi   :      2.96s CPU      3.00s WALL (   14574 calls)

     General routines
     calbec       :      5.04s CPU      5.12s WALL (   18158 calls)
     fft          :      0.59s CPU      0.63s WALL (     140 calls)
     ffts         :      0.01s CPU      0.01s WALL (      17 calls)
     fftw         :    183.86s CPU    188.38s WALL (  448476 calls)
     interpolate  :      0.10s CPU      0.10s WALL (      17 calls)
     davcio       :      0.01s CPU      0.02s WALL (     448 calls)

     Parallel routines
     fft_scatter  :     30.52s CPU     31.50s WALL (  448633 calls)

     PWSCF        :  5m11.51s CPU     5m25.83s WALL


   This run was terminated on:   1:36: 5  13Nov2017            

=------------------------------------------------------------------------------=
   JOB DONE.
=------------------------------------------------------------------------------=
