
     Program PWSCF v.6.1 (svn rev. 13369) starts on 11Nov2017 at 16:13:59 

     This program is part of the open-source Quantum ESPRESSO suite
     for quantum simulation of materials; please cite
         "P. Giannozzi et al., J. Phys.:Condens. Matter 21 395502 (2009);
          URL http://www.quantum-espresso.org", 
     in publications or presentations arising from this work. More details at
     http://www.quantum-espresso.org/quote

     Parallel version (MPI), running on     4 processors
     R & G space division:  proc/nbgrp/npool/nimage =       4
     Waiting for input...
     Reading input from standard input
     Message from routine read_cards :
     DEPRECATED: no units specified in ATOMIC_POSITIONS card
     Message from routine read_cards :
     ATOMIC_POSITIONS: units set to alat

     Current dimensions of program PWSCF are:
     Max number of different atomic species (ntypx) = 10
     Max number of k-points (npk) =  40000
     Max angular momentum in pseudopotentials (lmaxx) =  3

     Subspace diagonalization in iterative solution of the eigenvalue problem:
     a serial algorithm will be used


     Parallelization info
     --------------------
     sticks:   dense  smooth     PW     G-vecs:    dense   smooth      PW
     Min         552     274     84                17025     6011    1003
     Max         553     275     85                17028     6012    1005
     Sum        2209    1099    337                68105    24045    4015



     bravais-lattice index     =            2
     lattice parameter (alat)  =      12.6300  a.u.
     unit-cell volume          =     503.6746 (a.u.)^3
     number of atoms/cell      =            2
     number of atomic types    =            1
     number of electrons       =        28.00
     number of Kohn-Sham states=           14
     kinetic-energy cutoff     =      50.0000  Ry
     charge density cutoff     =     400.0000  Ry
     convergence threshold     =      1.0E-08
     mixing beta               =       0.7000
     number of iterations used =            8  plain     mixing
     Exchange-correlation      =  SLA  PW   PBX  PBC ( 1  4  3  4 0 0)

     celldm(1)=  12.630000  celldm(2)=   0.000000  celldm(3)=   0.000000
     celldm(4)=   0.000000  celldm(5)=   0.000000  celldm(6)=   0.000000

     crystal axes: (cart. coord. in units of alat)
               a(1) = (  -0.500000   0.000000   0.500000 )  
               a(2) = (   0.000000   0.500000   0.500000 )  
               a(3) = (  -0.500000   0.500000   0.000000 )  

     reciprocal axes: (cart. coord. in units 2 pi/alat)
               b(1) = ( -1.000000 -1.000000  1.000000 )  
               b(2) = (  1.000000  1.000000  1.000000 )  
               b(3) = ( -1.000000  1.000000 -1.000000 )  


     PseudoPot. # 1 for Sn read from file:
     /home/s1333534/quantum_espresso/qe-6.1/pseudo/sn_pbe_v1.4.uspp.F.UPF
     MD5 check sum: 469debedee59599fedebd795477fea03
     Pseudo is Ultrasoft + core correction, Zval = 14.0
     Generated by new atomic code, or converted to UPF format
     Using radial grid of  891 points,  6 beta functions with: 
                l(1) =   0
                l(2) =   0
                l(3) =   1
                l(4) =   1
                l(5) =   2
                l(6) =   2
     Q(r) pseudized with  8 coefficients,  rinner =    1.350   1.350   1.350
                                                       1.350   1.350

     atomic species   valence    mass     pseudopotential
        Sn            14.00   118.71000     Sn( 1.00)

     48 Sym. Ops., with inversion, found (24 have fractional translation)



   Cartesian axes

     site n.     atom                  positions (alat units)
         1           Sn  tau(   1) = (   0.0000000   0.0000000   0.0000000  )
         2           Sn  tau(   2) = (   0.2500000   0.2500000   0.2500000  )

     number of k points=    60
                       cart. coord. in units 2pi/alat
        k(    1) = (  -0.0625000   0.0625000   0.0625000), wk =   0.0078125
        k(    2) = (  -0.1875000   0.1875000  -0.0625000), wk =   0.0234375
        k(    3) = (  -0.3125000   0.3125000  -0.1875000), wk =   0.0234375
        k(    4) = (  -0.4375000   0.4375000  -0.3125000), wk =   0.0234375
        k(    5) = (   0.4375000  -0.4375000   0.5625000), wk =   0.0234375
        k(    6) = (   0.3125000  -0.3125000   0.4375000), wk =   0.0234375
        k(    7) = (   0.1875000  -0.1875000   0.3125000), wk =   0.0234375
        k(    8) = (   0.0625000  -0.0625000   0.1875000), wk =   0.0234375
        k(    9) = (  -0.0625000   0.3125000   0.0625000), wk =   0.0234375
        k(   10) = (  -0.1875000   0.4375000  -0.0625000), wk =   0.0468750
        k(   11) = (  -0.3125000   0.5625000  -0.1875000), wk =   0.0468750
        k(   12) = (   0.5625000  -0.3125000   0.6875000), wk =   0.0468750
        k(   13) = (   0.4375000  -0.1875000   0.5625000), wk =   0.0468750
        k(   14) = (   0.3125000  -0.0625000   0.4375000), wk =   0.0468750
        k(   15) = (   0.1875000   0.0625000   0.3125000), wk =   0.0468750
        k(   16) = (  -0.0625000   0.5625000   0.0625000), wk =   0.0234375
        k(   17) = (  -0.1875000   0.6875000  -0.0625000), wk =   0.0468750
        k(   18) = (   0.6875000  -0.1875000   0.8125000), wk =   0.0468750
        k(   19) = (   0.5625000  -0.0625000   0.6875000), wk =   0.0468750
        k(   20) = (   0.4375000   0.0625000   0.5625000), wk =   0.0468750
        k(   21) = (   0.3125000   0.1875000   0.4375000), wk =   0.0468750
        k(   22) = (  -0.0625000   0.8125000   0.0625000), wk =   0.0234375
        k(   23) = (   0.8125000  -0.0625000   0.9375000), wk =   0.0468750
        k(   24) = (   0.6875000   0.0625000   0.8125000), wk =   0.0468750
        k(   25) = (   0.5625000   0.1875000   0.6875000), wk =   0.0468750
        k(   26) = (   0.4375000   0.3125000   0.5625000), wk =   0.0468750
        k(   27) = (  -0.0625000  -0.9375000   0.0625000), wk =   0.0234375
        k(   28) = (  -0.1875000  -0.8125000  -0.0625000), wk =   0.0468750
        k(   29) = (  -0.3125000  -0.6875000  -0.1875000), wk =   0.0468750
        k(   30) = (  -0.0625000  -0.6875000   0.0625000), wk =   0.0234375
        k(   31) = (  -0.1875000  -0.5625000  -0.0625000), wk =   0.0468750
        k(   32) = (  -0.0625000  -0.4375000   0.0625000), wk =   0.0234375
        k(   33) = (  -0.1875000   0.1875000   0.1875000), wk =   0.0078125
        k(   34) = (  -0.3125000   0.3125000   0.0625000), wk =   0.0234375
        k(   35) = (  -0.4375000   0.4375000  -0.0625000), wk =   0.0234375
        k(   36) = (   0.4375000  -0.4375000   0.8125000), wk =   0.0234375
        k(   37) = (   0.3125000  -0.3125000   0.6875000), wk =   0.0234375
        k(   38) = (   0.1875000  -0.1875000   0.5625000), wk =   0.0234375
        k(   39) = (  -0.1875000   0.4375000   0.1875000), wk =   0.0234375
        k(   40) = (  -0.3125000   0.5625000   0.0625000), wk =   0.0468750
        k(   41) = (   0.5625000  -0.3125000   0.9375000), wk =   0.0468750
        k(   42) = (   0.4375000  -0.1875000   0.8125000), wk =   0.0468750
        k(   43) = (   0.3125000  -0.0625000   0.6875000), wk =   0.0468750
        k(   44) = (  -0.1875000   0.6875000   0.1875000), wk =   0.0234375
        k(   45) = (   0.6875000  -0.1875000   1.0625000), wk =   0.0468750
        k(   46) = (   0.5625000  -0.0625000   0.9375000), wk =   0.0468750
        k(   47) = (   0.4375000   0.0625000   0.8125000), wk =   0.0468750
        k(   48) = (  -0.1875000  -1.0625000   0.1875000), wk =   0.0234375
        k(   49) = (  -0.3125000  -0.9375000   0.0625000), wk =   0.0468750
        k(   50) = (  -0.1875000  -0.8125000   0.1875000), wk =   0.0234375
        k(   51) = (  -0.3125000   0.3125000   0.3125000), wk =   0.0078125
        k(   52) = (  -0.4375000   0.4375000   0.1875000), wk =   0.0234375
        k(   53) = (   0.4375000  -0.4375000   1.0625000), wk =   0.0234375
        k(   54) = (   0.3125000  -0.3125000   0.9375000), wk =   0.0234375
        k(   55) = (  -0.3125000   0.5625000   0.3125000), wk =   0.0234375
        k(   56) = (   0.5625000  -0.3125000   1.1875000), wk =   0.0468750
        k(   57) = (   0.4375000  -0.1875000   1.0625000), wk =   0.0468750
        k(   58) = (  -0.3125000  -1.1875000   0.3125000), wk =   0.0234375
        k(   59) = (  -0.4375000   0.4375000   0.4375000), wk =   0.0078125
        k(   60) = (   0.4375000  -0.4375000   1.3125000), wk =   0.0234375

     Dense  grid:    68105 G-vectors     FFT dimensions: (  60,  60,  60)

     Smooth grid:    24045 G-vectors     FFT dimensions: (  45,  45,  45)

     Estimated max dynamical RAM per process >      22.03MB

     Estimated total allocated dynamical RAM >      88.12MB

     Initial potential from superposition of free atoms

     starting charge   25.99991, renormalised to   28.00000
     Starting wfc are   18 randomized atomic wfcs

     total cpu time spent up to now is        1.7 secs

     per-process dynamical memory:    26.1 Mb

     Self-consistent Calculation

     iteration #  1     ecut=    50.00 Ry     beta=0.70
     Davidson diagonalization with overlap
     ethr =  1.00E-02,  avg # of iterations =  2.6

     total cpu time spent up to now is        5.1 secs

     total energy              =    -317.48324263 Ry
     Harris-Foulkes estimate   =    -319.55128684 Ry
     estimated scf accuracy    <       2.51954218 Ry

     iteration #  2     ecut=    50.00 Ry     beta=0.70
     Davidson diagonalization with overlap
     ethr =  9.00E-03,  avg # of iterations =  3.0

     total cpu time spent up to now is        8.9 secs

     total energy              =    -318.39346675 Ry
     Harris-Foulkes estimate   =    -318.71207513 Ry
     estimated scf accuracy    <       0.47409360 Ry

     iteration #  3     ecut=    50.00 Ry     beta=0.70
     Davidson diagonalization with overlap
     ethr =  1.69E-03,  avg # of iterations =  2.0

     total cpu time spent up to now is       12.2 secs

     total energy              =    -318.48870550 Ry
     Harris-Foulkes estimate   =    -318.49027276 Ry
     estimated scf accuracy    <       0.00287546 Ry

     iteration #  4     ecut=    50.00 Ry     beta=0.70
     Davidson diagonalization with overlap
     ethr =  1.03E-05,  avg # of iterations =  3.0

     total cpu time spent up to now is       15.8 secs

     total energy              =    -318.48958779 Ry
     Harris-Foulkes estimate   =    -318.48970479 Ry
     estimated scf accuracy    <       0.00017318 Ry

     iteration #  5     ecut=    50.00 Ry     beta=0.70
     Davidson diagonalization with overlap
     ethr =  6.19E-07,  avg # of iterations =  3.0

     total cpu time spent up to now is       19.4 secs

     total energy              =    -318.48964136 Ry
     Harris-Foulkes estimate   =    -318.48964213 Ry
     estimated scf accuracy    <       0.00000155 Ry

     iteration #  6     ecut=    50.00 Ry     beta=0.70
     Davidson diagonalization with overlap
     ethr =  5.55E-09,  avg # of iterations =  4.0

     total cpu time spent up to now is       23.2 secs

     total energy              =    -318.48964214 Ry
     Harris-Foulkes estimate   =    -318.48964218 Ry
     estimated scf accuracy    <       0.00000006 Ry

     iteration #  7     ecut=    50.00 Ry     beta=0.70
     Davidson diagonalization with overlap
     ethr =  2.30E-10,  avg # of iterations =  3.1

     total cpu time spent up to now is       26.9 secs

     End of self-consistent calculation

          k =-0.0625 0.0625 0.0625 (  3005 PWs)   bands (ev):

   -14.7734 -14.7734 -14.7694 -14.7198 -14.7198 -14.4900 -14.4900 -14.4802
   -14.4695 -14.4695  -3.2359   5.1532   6.7890   6.7890

          k =-0.1875 0.1875-0.0625 (  2997 PWs)   bands (ev):

   -14.7845 -14.7797 -14.7660 -14.7095 -14.7032 -14.5119 -14.5029 -14.4783
   -14.4637 -14.4521  -3.0537   4.0235   6.1241   6.6539

          k =-0.3125 0.3125-0.1875 (  2990 PWs)   bands (ev):

   -14.7952 -14.7920 -14.7553 -14.6926 -14.6833 -14.5294 -14.5181 -14.4931
   -14.4475 -14.4404  -2.6210   2.4935   5.6361   6.2399

          k =-0.4375 0.4375-0.3125 (  2997 PWs)   bands (ev):

   -14.8005 -14.7999 -14.7454 -14.6799 -14.6729 -14.5368 -14.5278 -14.5079
   -14.4372 -14.4358  -2.0515   1.2200   5.3916   5.8878

          k = 0.4375-0.4375 0.5625 (  3004 PWs)   bands (ev):

   -14.8036 -14.7999 -14.7427 -14.6741 -14.6734 -14.5357 -14.5336 -14.5108
   -14.4369 -14.4330  -1.8003   0.7863   5.3897   5.7179

          k = 0.3125-0.3125 0.4375 (  2995 PWs)   bands (ev):

   -14.8010 -14.7952 -14.7497 -14.6832 -14.6746 -14.5384 -14.5240 -14.5012
   -14.4423 -14.4353  -2.2395   1.5873   5.6151   5.7672

          k = 0.1875-0.1875 0.3125 (  2987 PWs)   bands (ev):

   -14.7925 -14.7871 -14.7606 -14.6984 -14.6878 -14.5291 -14.5092 -14.4870
   -14.4523 -14.4440  -2.7890   2.9977   6.0263   6.0330

          k = 0.0625-0.0625 0.1875 (  2997 PWs)   bands (ev):

   -14.7787 -14.7757 -14.7698 -14.7159 -14.7082 -14.5098 -14.4905 -14.4772
   -14.4687 -14.4584  -3.1441   4.5203   6.4521   6.4821

          k =-0.0625 0.3125 0.0625 (  2982 PWs)   bands (ev):

   -14.7848 -14.7814 -14.7711 -14.7075 -14.6878 -14.5352 -14.4962 -14.4703
   -14.4630 -14.4518  -2.9613   3.7356   5.9901   6.0066

          k =-0.1875 0.4375-0.0625 (  2993 PWs)   bands (ev):

   -14.7972 -14.7923 -14.7592 -14.6923 -14.6657 -14.5592 -14.5120 -14.4809
   -14.4492 -14.4392  -2.6068   2.6529   5.2345   5.7707

          k =-0.3125 0.5625-0.1875 (  3004 PWs)   bands (ev):

   -14.8110 -14.8008 -14.7381 -14.6752 -14.6523 -14.5699 -14.5298 -14.5057
   -14.4366 -14.4252  -2.0557   1.4400   4.7315   5.4772

          k = 0.5625-0.3125 0.6875 (  3014 PWs)   bands (ev):

   -14.8172 -14.8052 -14.7233 -14.6623 -14.6554 -14.5614 -14.5465 -14.5232
   -14.4306 -14.4188  -1.6091   0.6966   4.4727   5.4120

          k = 0.4375-0.1875 0.5625 (  3010 PWs)   bands (ev):

   -14.8136 -14.8051 -14.7266 -14.6730 -14.6542 -14.5606 -14.5342 -14.5238
   -14.4303 -14.4232  -1.8714   1.1130   4.4785   5.6145

          k = 0.3125-0.0625 0.4375 (  2996 PWs)   bands (ev):

   -14.8020 -14.7996 -14.7452 -14.6881 -14.6653 -14.5530 -14.5203 -14.4990
   -14.4403 -14.4334  -2.4442   2.2316   4.8332   5.9938

          k = 0.1875 0.0625 0.3125 (  2994 PWs)   bands (ev):

   -14.7909 -14.7853 -14.7630 -14.7028 -14.6873 -14.5324 -14.5055 -14.4791
   -14.4583 -14.4450  -2.8739   3.3592   5.6719   6.2801

          k =-0.0625 0.5625 0.0625 (  3002 PWs)   bands (ev):

   -14.7991 -14.7966 -14.7629 -14.6777 -14.6366 -14.5949 -14.5239 -14.4712
   -14.4432 -14.4396  -2.3302   2.1209   5.1190   5.2056

          k =-0.1875 0.6875-0.0625 (  3006 PWs)   bands (ev):

   -14.8109 -14.8061 -14.7399 -14.6580 -14.6192 -14.6129 -14.5442 -14.4963
   -14.4307 -14.4251  -1.8254   1.2294   4.5654   4.9490

          k = 0.6875-0.1875 0.8125 (  3008 PWs)   bands (ev):

   -14.8247 -14.8104 -14.7110 -14.6389 -14.6225 -14.6076 -14.5660 -14.5263
   -14.4242 -14.4100  -1.2639   0.4459   3.9996   4.9186

          k = 0.5625-0.0625 0.6875 (  3012 PWs)   bands (ev):

   -14.8271 -14.8117 -14.7029 -14.6435 -14.6263 -14.5916 -14.5734 -14.5357
   -14.4224 -14.4078  -1.3274   0.5267   3.7916   5.1665

          k = 0.4375 0.0625 0.5625 (  3017 PWs)   bands (ev):

   -14.8165 -14.8081 -14.7201 -14.6722 -14.6449 -14.5710 -14.5356 -14.5296
   -14.4266 -14.4208  -1.8985   1.2716   4.1633   5.5915

          k = 0.3125 0.1875 0.4375 (  2993 PWs)   bands (ev):

   -14.8023 -14.7961 -14.7479 -14.6863 -14.6699 -14.5467 -14.5208 -14.4991
   -14.4425 -14.4338  -2.3742   1.9627   5.1873   5.9019

          k =-0.0625 0.8125 0.0625 (  3004 PWs)   bands (ev):

   -14.8108 -14.8087 -14.7335 -14.6567 -14.6356 -14.5788 -14.5647 -14.5017
   -14.4264 -14.4241  -1.3689   0.5854   4.5971   4.7196

          k = 0.8125-0.0625 0.9375 (  3004 PWs)   bands (ev):

   -14.8187 -14.8135 -14.7030 -14.6744 -14.6128 -14.5887 -14.5608 -14.5326
   -14.4203 -14.4151  -0.7609  -0.1205   4.2624   4.5744

          k = 0.6875 0.0625 0.8125 (  3013 PWs)   bands (ev):

   -14.8277 -14.8133 -14.6988 -14.6362 -14.6183 -14.5966 -14.5864 -14.5369
   -14.4208 -14.4064  -0.8924   0.0428   3.8291   4.8083

          k = 0.5625 0.1875 0.6875 (  3009 PWs)   bands (ev):

   -14.8236 -14.8091 -14.7110 -14.6511 -14.6406 -14.5781 -14.5613 -14.5306
   -14.4256 -14.4116  -1.4282   0.5733   4.0429   5.2486

          k = 0.4375 0.3125 0.5625 (  3008 PWs)   bands (ev):

   -14.8088 -14.8016 -14.7359 -14.6737 -14.6656 -14.5465 -14.5338 -14.5158
   -14.4349 -14.4278  -1.8308   0.9144   4.9669   5.6539

          k =-0.0625-0.9375 0.0625 (  2997 PWs)   bands (ev):

   -14.8135 -14.8113 -14.7116 -14.6852 -14.6120 -14.5881 -14.5506 -14.5242
   -14.4224 -14.4202  -0.7785  -0.1223   4.4904   4.6198

          k =-0.1875-0.8125-0.0625 (  3006 PWs)   bands (ev):

   -14.8161 -14.8108 -14.7232 -14.6478 -14.6361 -14.5864 -14.5655 -14.5125
   -14.4240 -14.4188  -1.3230   0.5376   4.3645   4.7002

          k =-0.3125-0.6875-0.1875 (  3013 PWs)   bands (ev):

   -14.8189 -14.8061 -14.7257 -14.6588 -14.6332 -14.5937 -14.5460 -14.5147
   -14.4301 -14.4168  -1.6777   0.9321   4.3163   5.1413

          k =-0.0625-0.6875 0.0625 (  3015 PWs)   bands (ev):

   -14.8060 -14.8037 -14.7507 -14.6578 -14.6263 -14.6079 -14.5434 -14.4839
   -14.4338 -14.4310  -1.8885   1.3369   4.8083   4.9168

          k =-0.1875-0.5625-0.0625 (  3000 PWs)   bands (ev):

   -14.8043 -14.7995 -14.7519 -14.6770 -14.6406 -14.5886 -14.5256 -14.4858
   -14.4394 -14.4326  -2.2557   1.9384   4.8589   5.3121

          k =-0.0625-0.4375 0.0625 (  2986 PWs)   bands (ev):

   -14.7915 -14.7886 -14.7696 -14.6946 -14.6638 -14.5639 -14.5078 -14.4664
   -14.4536 -14.4470  -2.6891   2.9254   5.5195   5.5757

          k =-0.1875 0.1875 0.1875 (  2993 PWs)   bands (ev):

   -14.7852 -14.7852 -14.7636 -14.7021 -14.7021 -14.5099 -14.5099 -14.4867
   -14.4528 -14.4528  -2.9650   3.5878   6.4005   6.4005

          k =-0.3125 0.3125 0.0625 (  2994 PWs)   bands (ev):

   -14.7963 -14.7922 -14.7539 -14.6960 -14.6806 -14.5337 -14.5177 -14.4886
   -14.4503 -14.4387  -2.7005   2.8193   5.2415   6.3683

          k =-0.4375 0.4375-0.0625 (  3005 PWs)   bands (ev):

   -14.8089 -14.8046 -14.7314 -14.6827 -14.6584 -14.5542 -14.5281 -14.5174
   -14.4302 -14.4298  -2.2057   1.7569   4.4582   5.9583

          k = 0.4375-0.4375 0.8125 (  3011 PWs)   bands (ev):

   -14.8188 -14.8068 -14.7180 -14.6643 -14.6505 -14.5587 -14.5520 -14.5292
   -14.4279 -14.4174  -1.6527   0.8145   4.2318   5.5453

          k = 0.3125-0.3125 0.6875 (  3015 PWs)   bands (ev):

   -14.8189 -14.8042 -14.7259 -14.6597 -14.6471 -14.5767 -14.5461 -14.5169
   -14.4321 -14.4168  -1.6385   0.7921   4.4060   5.3132

          k = 0.1875-0.1875 0.5625 (  3001 PWs)   bands (ev):

   -14.8085 -14.7978 -14.7477 -14.6761 -14.6460 -14.5811 -14.5270 -14.4918
   -14.4411 -14.4278  -2.1874   1.7434   4.8851   5.3229

          k =-0.1875 0.4375 0.1875 (  2996 PWs)   bands (ev):

   -14.8006 -14.7914 -14.7560 -14.6900 -14.6685 -14.5540 -14.5147 -14.4869
   -14.4486 -14.4362  -2.5282   2.3730   5.4291   5.6565

          k =-0.3125 0.5625 0.0625 (  3009 PWs)   bands (ev):

   -14.8097 -14.8050 -14.7359 -14.6757 -14.6449 -14.5789 -14.5292 -14.5074
   -14.4317 -14.4271  -2.1096   1.6335   4.4964   5.4800

          k = 0.5625-0.3125 0.9375 (  3022 PWs)   bands (ev):

   -14.8224 -14.8123 -14.7086 -14.6563 -14.6267 -14.5949 -14.5541 -14.5335
   -14.4223 -14.4134  -1.5331   0.7904   3.9744   5.0995

          k = 0.4375-0.1875 0.8125 (  3015 PWs)   bands (ev):

   -14.8258 -14.8133 -14.7022 -14.6430 -14.6230 -14.6013 -14.5672 -14.5365
   -14.4214 -14.4089  -1.2374   0.4050   3.9361   4.8899

          k = 0.3125-0.0625 0.6875 (  3015 PWs)   bands (ev):

   -14.8165 -14.8103 -14.7236 -14.6583 -14.6221 -14.6060 -14.5464 -14.5161
   -14.4252 -14.4195  -1.7039   1.0359   4.2524   5.0072

          k =-0.1875 0.6875 0.1875 (  3010 PWs)   bands (ev):

   -14.8157 -14.8041 -14.7355 -14.6582 -14.6235 -14.6074 -14.5445 -14.5022
   -14.4328 -14.4199  -1.7735   1.1164   4.4487   5.0578

          k = 0.6875-0.1875 1.0625 (  3015 PWs)   bands (ev):

   -14.8212 -14.8152 -14.7074 -14.6377 -14.6336 -14.5973 -14.5674 -14.5295
   -14.4196 -14.4133  -1.2377   0.4452   4.1091   4.6435

          k = 0.5625-0.0625 0.9375 (  3021 PWs)   bands (ev):

   -14.8264 -14.8211 -14.6768 -14.6440 -14.6177 -14.5940 -14.5849 -14.5570
   -14.4128 -14.4076  -0.7158  -0.1182   3.9409   4.3303

          k = 0.4375 0.0625 0.8125 (  3024 PWs)   bands (ev):

   -14.8258 -14.8172 -14.6938 -14.6377 -14.6208 -14.6055 -14.5732 -14.5434
   -14.4171 -14.4089  -1.1255   0.3186   3.9048   4.6460

          k =-0.1875-1.0625 0.1875 (  3009 PWs)   bands (ev):

   -14.8242 -14.8115 -14.7041 -14.6576 -14.6145 -14.5878 -14.5770 -14.5319
   -14.4223 -14.4098  -0.8073  -0.0622   3.9925   4.7821

          k =-0.3125-0.9375 0.0625 (  3013 PWs)   bands (ev):

   -14.8237 -14.8179 -14.6891 -14.6579 -14.6148 -14.5902 -14.5753 -14.5460
   -14.4159 -14.4104  -0.7350  -0.1188   4.0561   4.4353

          k =-0.1875-0.8125 0.1875 (  3018 PWs)   bands (ev):

   -14.8215 -14.8088 -14.7197 -14.6371 -14.6371 -14.5964 -14.5657 -14.5170
   -14.4261 -14.4134  -1.2993   0.5007   4.1464   4.8751

          k =-0.3125 0.3125 0.3125 (  2995 PWs)   bands (ev):

   -14.7943 -14.7943 -14.7553 -14.6853 -14.6853 -14.5244 -14.5244 -14.4976
   -14.4426 -14.4426  -2.4651   2.0437   6.0220   6.0220

          k =-0.4375 0.4375 0.1875 (  3007 PWs)   bands (ev):

   -14.8056 -14.8027 -14.7373 -14.6819 -14.6650 -14.5466 -14.5268 -14.5144
   -14.4331 -14.4323  -2.1514   1.5279   4.8274   5.9361

          k = 0.4375-0.4375 1.0625 (  3015 PWs)   bands (ev):

   -14.8229 -14.8094 -14.7103 -14.6610 -14.6386 -14.5709 -14.5599 -14.5330
   -14.4247 -14.4133  -1.6328   0.8954   3.9180   5.5027

          k = 0.3125-0.3125 0.9375 (  3013 PWs)   bands (ev):

   -14.8291 -14.8110 -14.7031 -14.6234 -14.6219 -14.6088 -14.5824 -14.5340
   -14.4227 -14.4055  -1.1055   0.2706   3.7378   5.0891

          k =-0.3125 0.5625 0.3125 (  3007 PWs)   bands (ev):

   -14.8102 -14.7993 -14.7392 -14.6744 -14.6615 -14.5569 -14.5316 -14.5075
   -14.4382 -14.4259  -1.9567   1.1656   4.9793   5.5204

          k = 0.5625-0.3125 1.1875 (  3014 PWs)   bands (ev):

   -14.8209 -14.8088 -14.7151 -14.6588 -14.6396 -14.5808 -14.5502 -14.5286
   -14.4262 -14.4147  -1.5543   0.7343   4.1732   5.2089

          k = 0.4375-0.1875 1.0625 (  3018 PWs)   bands (ev):

   -14.8283 -14.8161 -14.6920 -14.6299 -14.6180 -14.6073 -14.5827 -14.5439
   -14.4180 -14.4061  -1.0041   0.1768   3.8015   4.7223

          k =-0.3125-1.1875 0.3125 (  3014 PWs)   bands (ev):

   -14.8254 -14.8088 -14.7123 -14.6411 -14.6329 -14.5951 -14.5648 -14.5269
   -14.4261 -14.4096  -1.3263   0.4781   3.9728   5.1656

          k =-0.4375 0.4375 0.4375 (  2992 PWs)   bands (ev):

   -14.7984 -14.7984 -14.7490 -14.6770 -14.6770 -14.5309 -14.5309 -14.5050
   -14.4381 -14.4381  -1.9251   0.9515   5.8123   5.8123

          k = 0.4375-0.4375 1.3125 (  3015 PWs)   bands (ev):

   -14.8117 -14.8033 -14.7303 -14.6691 -14.6645 -14.5444 -14.5426 -14.5212
   -14.4328 -14.4248  -1.7055   0.7494   4.7622   5.6222

     highest occupied level (ev):     6.7890

!    total energy              =    -318.48964217 Ry
     Harris-Foulkes estimate   =    -318.48964217 Ry
     estimated scf accuracy    <          2.7E-09 Ry

     The total energy is the sum of the following terms:

     one-electron contribution =    -163.41018616 Ry
     hartree contribution      =      98.06165521 Ry
     xc contribution           =     -85.94991302 Ry
     ewald contribution        =    -167.19119820 Ry

     convergence has been achieved in   7 iterations

     Writing output data file sn.alpha.12.63.save

     init_run     :      1.57s CPU      1.61s WALL (       1 calls)
     electrons    :     24.54s CPU     25.23s WALL (       1 calls)

     Called by init_run:
     wfcinit      :      1.08s CPU      1.11s WALL (       1 calls)
     potinit      :      0.06s CPU      0.06s WALL (       1 calls)

     Called by electrons:
     c_bands      :     20.07s CPU     20.48s WALL (       7 calls)
     sum_band     :      3.60s CPU      3.77s WALL (       7 calls)
     v_of_rho     :      0.36s CPU      0.38s WALL (       8 calls)
     newd         :      0.54s CPU      0.62s WALL (       8 calls)
     mix_rho      :      0.03s CPU      0.03s WALL (       7 calls)

     Called by c_bands:
     init_us_2    :      0.40s CPU      0.41s WALL (     900 calls)
     cegterg      :     19.33s CPU     19.73s WALL (     420 calls)

     Called by sum_band:
     sum_band:bec :      0.00s CPU      0.00s WALL (     420 calls)
     addusdens    :      0.54s CPU      0.66s WALL (       7 calls)

     Called by *egterg:
     h_psi        :     17.64s CPU     18.03s WALL (    1728 calls)
     s_psi        :      0.27s CPU      0.27s WALL (    1728 calls)
     g_psi        :      0.08s CPU      0.08s WALL (    1248 calls)
     cdiaghg      :      0.73s CPU      0.74s WALL (    1668 calls)

     Called by h_psi:
     h_psi:pot    :     17.48s CPU     17.87s WALL (    1728 calls)
     h_psi:calbec :      0.52s CPU      0.53s WALL (    1728 calls)
     vloc_psi     :     16.56s CPU     16.93s WALL (    1728 calls)
     add_vuspsi   :      0.40s CPU      0.41s WALL (    1728 calls)

     General routines
     calbec       :      0.64s CPU      0.65s WALL (    2148 calls)
     fft          :      0.19s CPU      0.19s WALL (     124 calls)
     ffts         :      0.01s CPU      0.01s WALL (      15 calls)
     fftw         :     15.99s CPU     16.37s WALL (   45594 calls)
     interpolate  :      0.04s CPU      0.04s WALL (      15 calls)
     davcio       :      0.00s CPU      0.00s WALL (      60 calls)

     Parallel routines
     fft_scatter  :      2.14s CPU      2.12s WALL (   45733 calls)

     PWSCF        :    26.26s CPU        28.03s WALL


   This run was terminated on:  16:14:27  11Nov2017            

=------------------------------------------------------------------------------=
   JOB DONE.
=------------------------------------------------------------------------------=
