
     Program PWSCF v.6.1 (svn rev. 13369) starts on 11Nov2017 at 15:32:43 

     This program is part of the open-source Quantum ESPRESSO suite
     for quantum simulation of materials; please cite
         "P. Giannozzi et al., J. Phys.:Condens. Matter 21 395502 (2009);
          URL http://www.quantum-espresso.org", 
     in publications or presentations arising from this work. More details at
     http://www.quantum-espresso.org/quote

     Parallel version (MPI), running on     4 processors
     R & G space division:  proc/nbgrp/npool/nimage =       4
     Waiting for input...
     Reading input from standard input
     Message from routine read_cards :
     DEPRECATED: no units specified in ATOMIC_POSITIONS card
     Message from routine read_cards :
     ATOMIC_POSITIONS: units set to alat

     Current dimensions of program PWSCF are:
     Max number of different atomic species (ntypx) = 10
     Max number of k-points (npk) =  40000
     Max angular momentum in pseudopotentials (lmaxx) =  3

     Subspace diagonalization in iterative solution of the eigenvalue problem:
     a serial algorithm will be used


     Parallelization info
     --------------------
     sticks:   dense  smooth     PW     G-vecs:    dense   smooth      PW
     Min         555     277     84                17271     6087    1003
     Max         556     278     85                17275     6090    1005
     Sum        2221    1111    337                69089    24357    4015



     bravais-lattice index     =            2
     lattice parameter (alat)  =      12.7000  a.u.
     unit-cell volume          =     512.0957 (a.u.)^3
     number of atoms/cell      =            2
     number of atomic types    =            1
     number of electrons       =        28.00
     number of Kohn-Sham states=           14
     kinetic-energy cutoff     =      50.0000  Ry
     charge density cutoff     =     400.0000  Ry
     convergence threshold     =      1.0E-08
     mixing beta               =       0.7000
     number of iterations used =            8  plain     mixing
     Exchange-correlation      =  SLA  PW   PBX  PBC ( 1  4  3  4 0 0)

     celldm(1)=  12.700000  celldm(2)=   0.000000  celldm(3)=   0.000000
     celldm(4)=   0.000000  celldm(5)=   0.000000  celldm(6)=   0.000000

     crystal axes: (cart. coord. in units of alat)
               a(1) = (  -0.500000   0.000000   0.500000 )  
               a(2) = (   0.000000   0.500000   0.500000 )  
               a(3) = (  -0.500000   0.500000   0.000000 )  

     reciprocal axes: (cart. coord. in units 2 pi/alat)
               b(1) = ( -1.000000 -1.000000  1.000000 )  
               b(2) = (  1.000000  1.000000  1.000000 )  
               b(3) = ( -1.000000  1.000000 -1.000000 )  


     PseudoPot. # 1 for Sn read from file:
     /home/s1333534/quantum_espresso/qe-6.1/pseudo/sn_pbe_v1.4.uspp.F.UPF
     MD5 check sum: 469debedee59599fedebd795477fea03
     Pseudo is Ultrasoft + core correction, Zval = 14.0
     Generated by new atomic code, or converted to UPF format
     Using radial grid of  891 points,  6 beta functions with: 
                l(1) =   0
                l(2) =   0
                l(3) =   1
                l(4) =   1
                l(5) =   2
                l(6) =   2
     Q(r) pseudized with  8 coefficients,  rinner =    1.350   1.350   1.350
                                                       1.350   1.350

     atomic species   valence    mass     pseudopotential
        Sn            14.00   118.71000     Sn( 1.00)

     48 Sym. Ops., with inversion, found (24 have fractional translation)



   Cartesian axes

     site n.     atom                  positions (alat units)
         1           Sn  tau(   1) = (   0.0000000   0.0000000   0.0000000  )
         2           Sn  tau(   2) = (   0.2500000   0.2500000   0.2500000  )

     number of k points=    60
                       cart. coord. in units 2pi/alat
        k(    1) = (  -0.0625000   0.0625000   0.0625000), wk =   0.0078125
        k(    2) = (  -0.1875000   0.1875000  -0.0625000), wk =   0.0234375
        k(    3) = (  -0.3125000   0.3125000  -0.1875000), wk =   0.0234375
        k(    4) = (  -0.4375000   0.4375000  -0.3125000), wk =   0.0234375
        k(    5) = (   0.4375000  -0.4375000   0.5625000), wk =   0.0234375
        k(    6) = (   0.3125000  -0.3125000   0.4375000), wk =   0.0234375
        k(    7) = (   0.1875000  -0.1875000   0.3125000), wk =   0.0234375
        k(    8) = (   0.0625000  -0.0625000   0.1875000), wk =   0.0234375
        k(    9) = (  -0.0625000   0.3125000   0.0625000), wk =   0.0234375
        k(   10) = (  -0.1875000   0.4375000  -0.0625000), wk =   0.0468750
        k(   11) = (  -0.3125000   0.5625000  -0.1875000), wk =   0.0468750
        k(   12) = (   0.5625000  -0.3125000   0.6875000), wk =   0.0468750
        k(   13) = (   0.4375000  -0.1875000   0.5625000), wk =   0.0468750
        k(   14) = (   0.3125000  -0.0625000   0.4375000), wk =   0.0468750
        k(   15) = (   0.1875000   0.0625000   0.3125000), wk =   0.0468750
        k(   16) = (  -0.0625000   0.5625000   0.0625000), wk =   0.0234375
        k(   17) = (  -0.1875000   0.6875000  -0.0625000), wk =   0.0468750
        k(   18) = (   0.6875000  -0.1875000   0.8125000), wk =   0.0468750
        k(   19) = (   0.5625000  -0.0625000   0.6875000), wk =   0.0468750
        k(   20) = (   0.4375000   0.0625000   0.5625000), wk =   0.0468750
        k(   21) = (   0.3125000   0.1875000   0.4375000), wk =   0.0468750
        k(   22) = (  -0.0625000   0.8125000   0.0625000), wk =   0.0234375
        k(   23) = (   0.8125000  -0.0625000   0.9375000), wk =   0.0468750
        k(   24) = (   0.6875000   0.0625000   0.8125000), wk =   0.0468750
        k(   25) = (   0.5625000   0.1875000   0.6875000), wk =   0.0468750
        k(   26) = (   0.4375000   0.3125000   0.5625000), wk =   0.0468750
        k(   27) = (  -0.0625000  -0.9375000   0.0625000), wk =   0.0234375
        k(   28) = (  -0.1875000  -0.8125000  -0.0625000), wk =   0.0468750
        k(   29) = (  -0.3125000  -0.6875000  -0.1875000), wk =   0.0468750
        k(   30) = (  -0.0625000  -0.6875000   0.0625000), wk =   0.0234375
        k(   31) = (  -0.1875000  -0.5625000  -0.0625000), wk =   0.0468750
        k(   32) = (  -0.0625000  -0.4375000   0.0625000), wk =   0.0234375
        k(   33) = (  -0.1875000   0.1875000   0.1875000), wk =   0.0078125
        k(   34) = (  -0.3125000   0.3125000   0.0625000), wk =   0.0234375
        k(   35) = (  -0.4375000   0.4375000  -0.0625000), wk =   0.0234375
        k(   36) = (   0.4375000  -0.4375000   0.8125000), wk =   0.0234375
        k(   37) = (   0.3125000  -0.3125000   0.6875000), wk =   0.0234375
        k(   38) = (   0.1875000  -0.1875000   0.5625000), wk =   0.0234375
        k(   39) = (  -0.1875000   0.4375000   0.1875000), wk =   0.0234375
        k(   40) = (  -0.3125000   0.5625000   0.0625000), wk =   0.0468750
        k(   41) = (   0.5625000  -0.3125000   0.9375000), wk =   0.0468750
        k(   42) = (   0.4375000  -0.1875000   0.8125000), wk =   0.0468750
        k(   43) = (   0.3125000  -0.0625000   0.6875000), wk =   0.0468750
        k(   44) = (  -0.1875000   0.6875000   0.1875000), wk =   0.0234375
        k(   45) = (   0.6875000  -0.1875000   1.0625000), wk =   0.0468750
        k(   46) = (   0.5625000  -0.0625000   0.9375000), wk =   0.0468750
        k(   47) = (   0.4375000   0.0625000   0.8125000), wk =   0.0468750
        k(   48) = (  -0.1875000  -1.0625000   0.1875000), wk =   0.0234375
        k(   49) = (  -0.3125000  -0.9375000   0.0625000), wk =   0.0468750
        k(   50) = (  -0.1875000  -0.8125000   0.1875000), wk =   0.0234375
        k(   51) = (  -0.3125000   0.3125000   0.3125000), wk =   0.0078125
        k(   52) = (  -0.4375000   0.4375000   0.1875000), wk =   0.0234375
        k(   53) = (   0.4375000  -0.4375000   1.0625000), wk =   0.0234375
        k(   54) = (   0.3125000  -0.3125000   0.9375000), wk =   0.0234375
        k(   55) = (  -0.3125000   0.5625000   0.3125000), wk =   0.0234375
        k(   56) = (   0.5625000  -0.3125000   1.1875000), wk =   0.0468750
        k(   57) = (   0.4375000  -0.1875000   1.0625000), wk =   0.0468750
        k(   58) = (  -0.3125000  -1.1875000   0.3125000), wk =   0.0234375
        k(   59) = (  -0.4375000   0.4375000   0.4375000), wk =   0.0078125
        k(   60) = (   0.4375000  -0.4375000   1.3125000), wk =   0.0234375

     Dense  grid:    69089 G-vectors     FFT dimensions: (  60,  60,  60)

     Smooth grid:    24357 G-vectors     FFT dimensions: (  45,  45,  45)

     Estimated max dynamical RAM per process >      22.33MB

     Estimated total allocated dynamical RAM >      89.30MB

     Initial potential from superposition of free atoms

     starting charge   25.99991, renormalised to   28.00000
     Starting wfc are   18 randomized atomic wfcs

     total cpu time spent up to now is        1.7 secs

     per-process dynamical memory:    26.4 Mb

     Self-consistent Calculation

     iteration #  1     ecut=    50.00 Ry     beta=0.70
     Davidson diagonalization with overlap
     ethr =  1.00E-02,  avg # of iterations =  2.6

     total cpu time spent up to now is        5.1 secs

     total energy              =    -317.48038119 Ry
     Harris-Foulkes estimate   =    -319.55394596 Ry
     estimated scf accuracy    <       2.52605070 Ry

     iteration #  2     ecut=    50.00 Ry     beta=0.70
     Davidson diagonalization with overlap
     ethr =  9.02E-03,  avg # of iterations =  3.0

     total cpu time spent up to now is        9.0 secs

     total energy              =    -318.39278561 Ry
     Harris-Foulkes estimate   =    -318.71205887 Ry
     estimated scf accuracy    <       0.47479117 Ry

     iteration #  3     ecut=    50.00 Ry     beta=0.70
     Davidson diagonalization with overlap
     ethr =  1.70E-03,  avg # of iterations =  2.0

     total cpu time spent up to now is       12.3 secs

     total energy              =    -318.48824074 Ry
     Harris-Foulkes estimate   =    -318.48980622 Ry
     estimated scf accuracy    <       0.00287269 Ry

     iteration #  4     ecut=    50.00 Ry     beta=0.70
     Davidson diagonalization with overlap
     ethr =  1.03E-05,  avg # of iterations =  3.0

     total cpu time spent up to now is       15.9 secs

     total energy              =    -318.48911884 Ry
     Harris-Foulkes estimate   =    -318.48923558 Ry
     estimated scf accuracy    <       0.00017269 Ry

     iteration #  5     ecut=    50.00 Ry     beta=0.70
     Davidson diagonalization with overlap
     ethr =  6.17E-07,  avg # of iterations =  3.0

     total cpu time spent up to now is       19.5 secs

     total energy              =    -318.48917229 Ry
     Harris-Foulkes estimate   =    -318.48917311 Ry
     estimated scf accuracy    <       0.00000164 Ry

     iteration #  6     ecut=    50.00 Ry     beta=0.70
     Davidson diagonalization with overlap
     ethr =  5.85E-09,  avg # of iterations =  4.0

     total cpu time spent up to now is       23.3 secs

     total energy              =    -318.48917311 Ry
     Harris-Foulkes estimate   =    -318.48917315 Ry
     estimated scf accuracy    <       0.00000007 Ry

     iteration #  7     ecut=    50.00 Ry     beta=0.70
     Davidson diagonalization with overlap
     ethr =  2.36E-10,  avg # of iterations =  3.1

     total cpu time spent up to now is       27.0 secs

     End of self-consistent calculation

          k =-0.0625 0.0625 0.0625 (  3071 PWs)   bands (ev):

   -14.9397 -14.9397 -14.9365 -14.8888 -14.8888 -14.6694 -14.6694 -14.6595
   -14.6498 -14.6498  -3.3281   4.8849   6.6013   6.6013

          k =-0.1875 0.1875-0.0625 (  3045 PWs)   bands (ev):

   -14.9503 -14.9459 -14.9328 -14.8788 -14.8724 -14.6898 -14.6815 -14.6579
   -14.6441 -14.6327  -3.1492   3.7992   5.9522   6.4686

          k =-0.3125 0.3125-0.1875 (  3045 PWs)   bands (ev):

   -14.9606 -14.9575 -14.9225 -14.8625 -14.8535 -14.7069 -14.6963 -14.6718
   -14.6284 -14.6221  -2.7246   2.3098   5.4699   6.0634

          k =-0.4375 0.4375-0.3125 (  3046 PWs)   bands (ev):

   -14.9656 -14.9652 -14.9127 -14.8504 -14.8438 -14.7142 -14.7056 -14.6856
   -14.6184 -14.6174  -2.1672   1.0658   5.2268   5.7186

          k = 0.4375-0.4375 0.5625 (  3060 PWs)   bands (ev):

   -14.9688 -14.9652 -14.9108 -14.8447 -14.8438 -14.7134 -14.7115 -14.6888
   -14.6180 -14.6146  -1.9224   0.6427   5.2232   5.5523

          k = 0.3125-0.3125 0.4375 (  3049 PWs)   bands (ev):

   -14.9662 -14.9609 -14.9169 -14.8532 -14.8455 -14.7158 -14.7020 -14.6795
   -14.6232 -14.6169  -2.3509   1.4246   5.4445   5.6013

          k = 0.1875-0.1875 0.3125 (  3039 PWs)   bands (ev):

   -14.9579 -14.9529 -14.9274 -14.8680 -14.8579 -14.7064 -14.6880 -14.6658
   -14.6333 -14.6252  -2.8893   2.8016   5.8498   5.8625

          k = 0.0625-0.0625 0.1875 (  3051 PWs)   bands (ev):

   -14.9450 -14.9425 -14.9363 -14.8848 -14.8773 -14.6880 -14.6702 -14.6562
   -14.6483 -14.6392  -3.2379   4.2783   6.2732   6.3003

          k =-0.0625 0.3125 0.0625 (  3052 PWs)   bands (ev):

   -14.9507 -14.9474 -14.9378 -14.8768 -14.8588 -14.7124 -14.6757 -14.6503
   -14.6432 -14.6330  -3.0584   3.5133   5.8200   5.8376

          k =-0.1875 0.4375-0.0625 (  3042 PWs)   bands (ev):

   -14.9625 -14.9580 -14.9259 -14.8621 -14.8367 -14.7351 -14.6907 -14.6605
   -14.6296 -14.6205  -2.7103   2.4562   5.0807   5.6039

          k =-0.3125 0.5625-0.1875 (  3048 PWs)   bands (ev):

   -14.9757 -14.9659 -14.9058 -14.8457 -14.8239 -14.7454 -14.7076 -14.6840
   -14.6179 -14.6070  -2.1702   1.2722   4.5825   5.3172

          k = 0.5625-0.3125 0.6875 (  3064 PWs)   bands (ev):

   -14.9817 -14.9701 -14.8922 -14.8334 -14.8268 -14.7373 -14.7235 -14.7009
   -14.6121 -14.6011  -1.7342   0.5472   4.3265   5.2536

          k = 0.4375-0.1875 0.5625 (  3057 PWs)   bands (ev):

   -14.9784 -14.9702 -14.8946 -14.8437 -14.8256 -14.7366 -14.7119 -14.7012
   -14.6119 -14.6050  -1.9901   0.9532   4.3346   5.4514

          k = 0.3125-0.0625 0.4375 (  3049 PWs)   bands (ev):

   -14.9671 -14.9647 -14.9125 -14.8585 -14.8366 -14.7292 -14.6985 -14.6778
   -14.6214 -14.6151  -2.5509   2.0457   4.6873   5.8221

          k = 0.1875 0.0625 0.3125 (  3044 PWs)   bands (ev):

   -14.9564 -14.9513 -14.9298 -14.8721 -14.8576 -14.7094 -14.6842 -14.6587
   -14.6385 -14.6261  -2.9726   3.1500   5.5095   6.1017

          k =-0.0625 0.5625 0.0625 (  3055 PWs)   bands (ev):

   -14.9643 -14.9621 -14.9293 -14.8486 -14.8092 -14.7689 -14.7020 -14.6516
   -14.6242 -14.6208  -2.4386   1.9302   4.9673   5.0522

          k =-0.1875 0.6875-0.0625 (  3055 PWs)   bands (ev):

   -14.9757 -14.9710 -14.9074 -14.8296 -14.7923 -14.7865 -14.7212 -14.6754
   -14.6121 -14.6070  -1.9433   1.0563   4.4251   4.8006

          k = 0.6875-0.1875 0.8125 (  3069 PWs)   bands (ev):

   -14.9887 -14.9755 -14.8801 -14.8115 -14.7955 -14.7814 -14.7423 -14.7044
   -14.6061 -14.5928  -1.3938   0.2896   3.8706   4.7708

          k = 0.5625-0.0625 0.6875 (  3068 PWs)   bands (ev):

   -14.9910 -14.9764 -14.8725 -14.8158 -14.7994 -14.7660 -14.7489 -14.7130
   -14.6045 -14.5909  -1.4567   0.3695   3.6676   5.0134

          k = 0.4375 0.0625 0.5625 (  3061 PWs)   bands (ev):

   -14.9810 -14.9727 -14.8886 -14.8432 -14.8168 -14.7464 -14.7130 -14.7066
   -14.6086 -14.6028  -2.0161   1.1026   4.0307   5.4291

          k = 0.3125 0.1875 0.4375 (  3047 PWs)   bands (ev):

   -14.9674 -14.9616 -14.9153 -14.8566 -14.8410 -14.7233 -14.6989 -14.6776
   -14.6234 -14.6156  -2.4826   1.7881   5.0289   5.7319

          k =-0.0625 0.8125 0.0625 (  3049 PWs)   bands (ev):

   -14.9757 -14.9735 -14.9009 -14.8279 -14.8083 -14.7540 -14.7410 -14.6807
   -14.6079 -14.6058  -1.4947   0.4233   4.4557   4.5752

          k = 0.8125-0.0625 0.9375 (  3062 PWs)   bands (ev):

   -14.9831 -14.9781 -14.8722 -14.8448 -14.7869 -14.7637 -14.7371 -14.7102
   -14.6025 -14.5976  -0.8986  -0.2696   4.1289   4.4334

          k = 0.6875 0.0625 0.8125 (  3067 PWs)   bands (ev):

   -14.9918 -14.9778 -14.8683 -14.8085 -14.7918 -14.7710 -14.7616 -14.7142
   -14.6029 -14.5893  -1.0296  -0.1077   3.7054   4.6626

          k = 0.5625 0.1875 0.6875 (  3068 PWs)   bands (ev):

   -14.9877 -14.9741 -14.8802 -14.8229 -14.8129 -14.7533 -14.7375 -14.7082
   -14.6075 -14.5945  -1.5563   0.4203   3.9099   5.0938

          k = 0.4375 0.3125 0.5625 (  3055 PWs)   bands (ev):

   -14.9737 -14.9666 -14.9037 -14.8443 -14.8367 -14.7232 -14.7114 -14.6934
   -14.6162 -14.6096  -1.9514   0.7648   4.8089   5.4898

          k =-0.0625-0.9375 0.0625 (  3054 PWs)   bands (ev):

   -14.9782 -14.9759 -14.8802 -14.8551 -14.7861 -14.7632 -14.7275 -14.7021
   -14.6045 -14.6024  -0.9152  -0.2712   4.3511   4.4772

          k =-0.1875-0.8125-0.0625 (  3063 PWs)   bands (ev):

   -14.9805 -14.9757 -14.8916 -14.8196 -14.8089 -14.7614 -14.7417 -14.6911
   -14.6059 -14.6010  -1.4502   0.3765   4.2286   4.5569

          k =-0.3125-0.6875-0.1875 (  3055 PWs)   bands (ev):

   -14.9831 -14.9711 -14.8938 -14.8301 -14.8056 -14.7679 -14.7231 -14.6928
   -14.6115 -14.5989  -1.7996   0.7700   4.1780   4.9889

          k =-0.0625-0.6875 0.0625 (  3058 PWs)   bands (ev):

   -14.9709 -14.9688 -14.9174 -14.8298 -14.7987 -14.7817 -14.7204 -14.6634
   -14.6151 -14.6126  -2.0048   1.1608   4.6628   4.7687

          k =-0.1875-0.5625-0.0625 (  3049 PWs)   bands (ev):

   -14.9692 -14.9648 -14.9189 -14.8478 -14.8129 -14.7629 -14.7037 -14.6652
   -14.6204 -14.6142  -2.3656   1.7534   4.7125   5.1559

          k =-0.0625-0.4375 0.0625 (  3048 PWs)   bands (ev):

   -14.9572 -14.9543 -14.9358 -14.8646 -14.8352 -14.7396 -14.6868 -14.6469
   -14.6342 -14.6282  -2.7910   2.7195   5.3595   5.4152

          k =-0.1875 0.1875 0.1875 (  3047 PWs)   bands (ev):

   -14.9510 -14.9510 -14.9308 -14.8715 -14.8715 -14.6882 -14.6882 -14.6660
   -14.6336 -14.6336  -3.0621   3.3787   6.2217   6.2217

          k =-0.3125 0.3125 0.0625 (  3040 PWs)   bands (ev):

   -14.9616 -14.9578 -14.9209 -14.8660 -14.8510 -14.7108 -14.6956 -14.6679
   -14.6307 -14.6199  -2.8025   2.6230   5.0878   6.1889

          k =-0.4375 0.4375-0.0625 (  3060 PWs)   bands (ev):

   -14.9736 -14.9696 -14.8995 -14.8534 -14.8300 -14.7305 -14.7055 -14.6954
   -14.6119 -14.6117  -2.3172   1.5803   4.3196   5.7878

          k = 0.4375-0.4375 0.8125 (  3057 PWs)   bands (ev):

   -14.9833 -14.9718 -14.8865 -14.8356 -14.8220 -14.7349 -14.7284 -14.7066
   -14.6096 -14.5997  -1.7763   0.6598   4.0936   5.3837

          k = 0.3125-0.3125 0.6875 (  3059 PWs)   bands (ev):

   -14.9832 -14.9693 -14.8940 -14.8308 -14.8189 -14.7517 -14.7231 -14.6949
   -14.6133 -14.5993  -1.7622   0.6377   4.2629   5.1567

          k = 0.1875-0.1875 0.5625 (  3056 PWs)   bands (ev):

   -14.9734 -14.9632 -14.9150 -14.8470 -14.8182 -14.7560 -14.7051 -14.6710
   -14.6220 -14.6097  -2.2989   1.5660   4.7346   5.1668

          k =-0.1875 0.4375 0.1875 (  3043 PWs)   bands (ev):

   -14.9655 -14.9571 -14.9228 -14.8600 -14.8396 -14.7300 -14.6932 -14.6661
   -14.6291 -14.6175  -2.6334   2.1869   5.2651   5.4939

          k =-0.3125 0.5625 0.0625 (  3054 PWs)   bands (ev):

   -14.9745 -14.9699 -14.9036 -14.8465 -14.8169 -14.7539 -14.7069 -14.6855
   -14.6132 -14.6089  -2.2226   1.4566   4.3572   5.3199

          k = 0.5625-0.3125 0.9375 (  3063 PWs)   bands (ev):

   -14.9865 -14.9768 -14.8775 -14.8277 -14.7996 -14.7691 -14.7306 -14.7104
   -14.6043 -14.5958  -1.6578   0.6280   3.8462   4.9484

          k = 0.4375-0.1875 0.8125 (  3067 PWs)   bands (ev):

   -14.9899 -14.9778 -14.8716 -14.8152 -14.7962 -14.7753 -14.7432 -14.7137
   -14.6034 -14.5918  -1.3687   0.2510   3.8075   4.7436

          k = 0.3125-0.0625 0.6875 (  3055 PWs)   bands (ev):

   -14.9808 -14.9751 -14.8918 -14.8297 -14.7952 -14.7796 -14.7233 -14.6939
   -14.6070 -14.6015  -1.8246   0.8678   4.1184   4.8581

          k =-0.1875 0.6875 0.1875 (  3050 PWs)   bands (ev):

   -14.9801 -14.9690 -14.9030 -14.8296 -14.7965 -14.7808 -14.7216 -14.6811
   -14.6140 -14.6018  -1.8928   0.9477   4.3095   4.9068

          k = 0.6875-0.1875 1.0625 (  3072 PWs)   bands (ev):

   -14.9856 -14.9795 -14.8766 -14.8102 -14.8061 -14.7718 -14.7435 -14.7072
   -14.6017 -14.5961  -1.3672   0.2862   3.9787   4.5025

          k = 0.5625-0.0625 0.9375 (  3062 PWs)   bands (ev):

   -14.9904 -14.9853 -14.8471 -14.8157 -14.7910 -14.7686 -14.7597 -14.7330
   -14.5953 -14.5903  -0.8559  -0.2677   3.8151   4.1964

          k = 0.4375 0.0625 0.8125 (  3065 PWs)   bands (ev):

   -14.9896 -14.9817 -14.8634 -14.8100 -14.7935 -14.7794 -14.7489 -14.7200
   -14.5994 -14.5917  -1.2580   0.1627   3.7788   4.5053

          k =-0.1875-1.0625 0.1875 (  3065 PWs)   bands (ev):

   -14.9885 -14.9763 -14.8730 -14.8289 -14.7884 -14.7630 -14.7523 -14.7094
   -14.6044 -14.5925  -0.9451  -0.2115   3.8653   4.6362

          k =-0.3125-0.9375 0.0625 (  3071 PWs)   bands (ev):

   -14.9879 -14.9825 -14.8591 -14.8292 -14.7886 -14.7652 -14.7508 -14.7229
   -14.5984 -14.5930  -0.8740  -0.2681   3.9276   4.2985

          k =-0.1875-0.8125 0.1875 (  3066 PWs)   bands (ev):

   -14.9856 -14.9738 -14.8879 -14.8097 -14.8091 -14.7709 -14.7418 -14.6954
   -14.6078 -14.5960  -1.4275   0.3416   4.0152   4.7275

          k =-0.3125 0.3125 0.3125 (  3040 PWs)   bands (ev):

   -14.9597 -14.9597 -14.9224 -14.8554 -14.8554 -14.7022 -14.7022 -14.6757
   -14.6238 -14.6238  -2.5718   1.8723   5.8505   5.8505

          k =-0.4375 0.4375 0.1875 (  3054 PWs)   bands (ev):

   -14.9704 -14.9676 -14.9051 -14.8525 -14.8362 -14.7234 -14.7044 -14.6918
   -14.6146 -14.6140  -2.2643   1.3621   4.6762   5.7660

          k = 0.4375-0.4375 1.0625 (  3060 PWs)   bands (ev):

   -14.9869 -14.9743 -14.8791 -14.8322 -14.8110 -14.7464 -14.7356 -14.7103
   -14.6069 -14.5956  -1.7559   0.7330   3.7908   5.3420

          k = 0.3125-0.3125 0.9375 (  3058 PWs)   bands (ev):

   -14.9928 -14.9759 -14.8720 -14.7963 -14.7951 -14.7821 -14.7579 -14.7115
   -14.6048 -14.5882  -1.2392   0.1175   3.6156   4.9371

          k =-0.3125 0.5625 0.3125 (  3053 PWs)   bands (ev):

   -14.9748 -14.9647 -14.9066 -14.8449 -14.8328 -14.7330 -14.7092 -14.6859
   -14.6193 -14.6080  -2.0739   1.0084   4.8213   5.3597

          k = 0.5625-0.3125 1.1875 (  3062 PWs)   bands (ev):

   -14.9852 -14.9737 -14.8837 -14.8302 -14.8118 -14.7558 -14.7271 -14.7058
   -14.6079 -14.5972  -1.6795   0.5781   4.0370   5.0554

          k = 0.4375-0.1875 1.0625 (  3067 PWs)   bands (ev):

   -14.9921 -14.9806 -14.8617 -14.8027 -14.7911 -14.7813 -14.7579 -14.7207
   -14.6003 -14.5890  -1.1394   0.0240   3.6781   4.5794

          k =-0.3125-1.1875 0.3125 (  3073 PWs)   bands (ev):

   -14.9896 -14.9736 -14.8813 -14.8133 -14.8056 -14.7694 -14.7411 -14.7049
   -14.6080 -14.5924  -1.4561   0.3247   3.8427   5.0120

          k =-0.4375 0.4375 0.4375 (  3058 PWs)   bands (ev):

   -14.9641 -14.9641 -14.9163 -14.8477 -14.8477 -14.7090 -14.7090 -14.6833
   -14.6193 -14.6193  -2.0442   0.8052   5.6446   5.6446

          k = 0.4375-0.4375 1.3125 (  3064 PWs)   bands (ev):

   -14.9767 -14.9683 -14.8989 -14.8398 -14.8353 -14.7213 -14.7197 -14.6989
   -14.6141 -14.6068  -1.8291   0.6026   4.6088   5.4588

     highest occupied level (ev):     6.6013

!    total energy              =    -318.48917314 Ry
     Harris-Foulkes estimate   =    -318.48917314 Ry
     estimated scf accuracy    <          2.8E-09 Ry

     The total energy is the sum of the following terms:

     one-electron contribution =    -164.92034581 Ry
     hartree contribution      =      98.63585342 Ry
     xc contribution           =     -85.93500884 Ry
     ewald contribution        =    -166.26967191 Ry

     convergence has been achieved in   7 iterations

     Writing output data file sn.alpha.12.7.save

     init_run     :      1.59s CPU      1.63s WALL (       1 calls)
     electrons    :     24.76s CPU     25.37s WALL (       1 calls)

     Called by init_run:
     wfcinit      :      1.10s CPU      1.13s WALL (       1 calls)
     potinit      :      0.06s CPU      0.06s WALL (       1 calls)

     Called by electrons:
     c_bands      :     20.17s CPU     20.55s WALL (       7 calls)
     sum_band     :      3.71s CPU      3.84s WALL (       7 calls)
     v_of_rho     :      0.36s CPU      0.38s WALL (       8 calls)
     newd         :      0.56s CPU      0.61s WALL (       8 calls)
     mix_rho      :      0.03s CPU      0.03s WALL (       7 calls)

     Called by c_bands:
     init_us_2    :      0.40s CPU      0.41s WALL (     900 calls)
     cegterg      :     19.41s CPU     19.79s WALL (     420 calls)

     Called by sum_band:
     sum_band:bec :      0.00s CPU      0.00s WALL (     420 calls)
     addusdens    :      0.58s CPU      0.66s WALL (       7 calls)

     Called by *egterg:
     h_psi        :     17.73s CPU     18.11s WALL (    1726 calls)
     s_psi        :      0.27s CPU      0.27s WALL (    1726 calls)
     g_psi        :      0.08s CPU      0.08s WALL (    1246 calls)
     cdiaghg      :      0.72s CPU      0.73s WALL (    1666 calls)

     Called by h_psi:
     h_psi:pot    :     17.57s CPU     17.94s WALL (    1726 calls)
     h_psi:calbec :      0.51s CPU      0.52s WALL (    1726 calls)
     vloc_psi     :     16.67s CPU     17.03s WALL (    1726 calls)
     add_vuspsi   :      0.39s CPU      0.39s WALL (    1726 calls)

     General routines
     calbec       :      0.64s CPU      0.65s WALL (    2146 calls)
     fft          :      0.21s CPU      0.21s WALL (     124 calls)
     ffts         :      0.01s CPU      0.01s WALL (      15 calls)
     fftw         :     16.05s CPU     16.40s WALL (   45552 calls)
     interpolate  :      0.04s CPU      0.04s WALL (      15 calls)
     davcio       :      0.00s CPU      0.00s WALL (      60 calls)

     Parallel routines
     fft_scatter  :      2.18s CPU      2.18s WALL (   45691 calls)

     PWSCF        :    26.50s CPU        28.21s WALL


   This run was terminated on:  15:33:11  11Nov2017            

=------------------------------------------------------------------------------=
   JOB DONE.
=------------------------------------------------------------------------------=
