
     Program PWSCF v.6.1 (svn rev. 13369) starts on 13Nov2017 at  9:52:24 

     This program is part of the open-source Quantum ESPRESSO suite
     for quantum simulation of materials; please cite
         "P. Giannozzi et al., J. Phys.:Condens. Matter 21 395502 (2009);
          URL http://www.quantum-espresso.org", 
     in publications or presentations arising from this work. More details at
     http://www.quantum-espresso.org/quote

     Parallel version (MPI), running on     4 processors
     R & G space division:  proc/nbgrp/npool/nimage =       4
     Waiting for input...
     Reading input from standard input

     Current dimensions of program PWSCF are:
     Max number of different atomic species (ntypx) = 10
     Max number of k-points (npk) =  40000
     Max angular momentum in pseudopotentials (lmaxx) =  3

     Subspace diagonalization in iterative solution of the eigenvalue problem:
     a serial algorithm will be used


     Parallelization info
     --------------------
     sticks:   dense  smooth     PW     G-vecs:    dense   smooth      PW
     Min        1225     485    198                17459     4414    1142
     Max        1228     486    199                17460     4415    1143
     Sum        4905    1941    793                69837    17657    4569



     bravais-lattice index     =            0
     lattice parameter (alat)  =      11.2500  a.u.
     unit-cell volume          =     369.9605 (a.u.)^3
     number of atoms/cell      =            2
     number of atomic types    =            1
     number of electrons       =        28.00
     number of Kohn-Sham states=           18
     kinetic-energy cutoff     =      50.0000  Ry
     charge density cutoff     =     500.0000  Ry
     convergence threshold     =      1.0E-08
     mixing beta               =       0.7000
     number of iterations used =            8  plain     mixing
     Exchange-correlation      =  SLA  PW   PBX  PBC ( 1  4  3  4 0 0)

     celldm(1)=  11.250000  celldm(2)=   0.000000  celldm(3)=   0.000000
     celldm(4)=   0.000000  celldm(5)=   0.000000  celldm(6)=   0.000000

     crystal axes: (cart. coord. in units of alat)
               a(1) = (   0.986837   0.000000   0.000000 )  
               a(2) = (   0.000000   0.986837   0.000000 )  
               a(3) = (   0.493419   0.493419   0.266813 )  

     reciprocal axes: (cart. coord. in units 2 pi/alat)
               b(1) = (  1.013339  0.000000 -1.873974 )  
               b(2) = (  0.000000  1.013339 -1.873974 )  
               b(3) = (  0.000000  0.000000  3.747943 )  


     PseudoPot. # 1 for Sn read from file:
     /home/s1333534/quantum_espresso/qe-6.1/pseudo/sn_pbe_v1.4.uspp.F.UPF
     MD5 check sum: 469debedee59599fedebd795477fea03
     Pseudo is Ultrasoft + core correction, Zval = 14.0
     Generated by new atomic code, or converted to UPF format
     Using radial grid of  891 points,  6 beta functions with: 
                l(1) =   0
                l(2) =   0
                l(3) =   1
                l(4) =   1
                l(5) =   2
                l(6) =   2
     Q(r) pseudized with  8 coefficients,  rinner =    1.350   1.350   1.350
                                                       1.350   1.350

     atomic species   valence    mass     pseudopotential
        Sn            14.00   118.71000     Sn( 1.00)

     No symmetry found



   Cartesian axes

     site n.     atom                  positions (alat units)
         1           Sn  tau(   1) = (   1.0725850   1.3160481   0.0533919  )
         2           Sn  tau(   2) = (   0.5198369   0.2763739   0.0177973  )

     number of k points=   800  Marzari-Vanderbilt smearing, width (Ry)=  0.0200

     Number of k-points >= 100: set verbosity='high' to print them.

     Dense  grid:    69837 G-vectors     FFT dimensions: (  80,  80,  60)

     Smooth grid:    17657 G-vectors     FFT dimensions: (  50,  50,  40)

     Estimated max dynamical RAM per process >     136.61MB

     Estimated total allocated dynamical RAM >     546.44MB

     Initial potential from superposition of free atoms

     starting charge   25.99991, renormalised to   28.00000
     Starting wfc are   18 randomized atomic wfcs

     total cpu time spent up to now is       20.6 secs

     per-process dynamical memory:   150.2 Mb

     Self-consistent Calculation

     iteration #  1     ecut=    50.00 Ry     beta=0.70
     Davidson diagonalization with overlap
     ethr =  1.00E-02,  avg # of iterations =  3.9

     total cpu time spent up to now is       98.9 secs

     total energy              =    -317.50114368 Ry
     Harris-Foulkes estimate   =    -319.46748109 Ry
     estimated scf accuracy    <       2.40768351 Ry

     iteration #  2     ecut=    50.00 Ry     beta=0.70
     Davidson diagonalization with overlap
     ethr =  8.60E-03,  avg # of iterations =  2.6

     total cpu time spent up to now is      166.4 secs

     total energy              =    -318.35269709 Ry
     Harris-Foulkes estimate   =    -318.65162113 Ry
     estimated scf accuracy    <       0.43977174 Ry

     iteration #  3     ecut=    50.00 Ry     beta=0.70
     Davidson diagonalization with overlap
     ethr =  1.57E-03,  avg # of iterations =  2.0

     total cpu time spent up to now is      232.1 secs

     total energy              =    -318.44385676 Ry
     Harris-Foulkes estimate   =    -318.44559411 Ry
     estimated scf accuracy    <       0.00293428 Ry

     iteration #  4     ecut=    50.00 Ry     beta=0.70
     Davidson diagonalization with overlap
     ethr =  1.05E-05,  avg # of iterations =  3.6

     total cpu time spent up to now is      306.8 secs

     total energy              =    -318.44447767 Ry
     Harris-Foulkes estimate   =    -318.44464516 Ry
     estimated scf accuracy    <       0.00033330 Ry

     iteration #  5     ecut=    50.00 Ry     beta=0.70
     Davidson diagonalization with overlap
     ethr =  1.19E-06,  avg # of iterations =  2.6

     total cpu time spent up to now is      363.4 secs

     total energy              =    -318.44453073 Ry
     Harris-Foulkes estimate   =    -318.44454120 Ry
     estimated scf accuracy    <       0.00001815 Ry

     iteration #  6     ecut=    50.00 Ry     beta=0.70
     Davidson diagonalization with overlap
     ethr =  6.48E-08,  avg # of iterations =  3.0

     total cpu time spent up to now is      437.1 secs

     total energy              =    -318.44453771 Ry
     Harris-Foulkes estimate   =    -318.44453815 Ry
     estimated scf accuracy    <       0.00000094 Ry

     iteration #  7     ecut=    50.00 Ry     beta=0.70
     Davidson diagonalization with overlap
     ethr =  3.37E-09,  avg # of iterations =  2.8

     total cpu time spent up to now is      505.5 secs

     total energy              =    -318.44453785 Ry
     Harris-Foulkes estimate   =    -318.44453796 Ry
     estimated scf accuracy    <       0.00000018 Ry

     iteration #  8     ecut=    50.00 Ry     beta=0.70
     Davidson diagonalization with overlap
     ethr =  6.30E-10,  avg # of iterations =  3.0

     total cpu time spent up to now is      580.3 secs

     End of self-consistent calculation

     Number of k-points >= 100: set verbosity='high' to print the bands.

     the Fermi energy is    10.6188 ev

!    total energy              =    -318.44453791 Ry
     Harris-Foulkes estimate   =    -318.44453791 Ry
     estimated scf accuracy    <          7.4E-09 Ry

     The total energy is the sum of the following terms:

     one-electron contribution =    -117.21792221 Ry
     hartree contribution      =      78.84102429 Ry
     xc contribution           =     -86.06333337 Ry
     ewald contribution        =    -194.00433017 Ry
     smearing contrib. (-TS)   =       0.00002356 Ry

     convergence has been achieved in   8 iterations

     Writing output data file sn.beta.11.25.save

     init_run     :     19.86s CPU     20.41s WALL (       1 calls)
     electrons    :    544.30s CPU    560.09s WALL (       1 calls)

     Called by init_run:
     wfcinit      :     18.74s CPU     19.18s WALL (       1 calls)
     potinit      :      0.31s CPU      0.35s WALL (       1 calls)

     Called by electrons:
     c_bands      :    455.65s CPU    468.75s WALL (       8 calls)
     sum_band     :     86.80s CPU     88.98s WALL (       8 calls)
     v_of_rho     :      0.95s CPU      0.99s WALL (       9 calls)
     newd         :      0.92s CPU      0.98s WALL (       9 calls)
     mix_rho      :      0.08s CPU      0.12s WALL (       8 calls)

     Called by c_bands:
     init_us_2    :      4.41s CPU      4.50s WALL (   13600 calls)
     cegterg      :    447.14s CPU    460.00s WALL (    6400 calls)

     Called by sum_band:
     sum_band:bec :      0.07s CPU      0.09s WALL (    6400 calls)
     addusdens    :      0.99s CPU      1.13s WALL (       8 calls)

     Called by *egterg:
     h_psi        :    420.21s CPU    432.56s WALL (   25999 calls)
     s_psi        :      3.32s CPU      3.36s WALL (   25999 calls)
     g_psi        :      0.95s CPU      0.97s WALL (   18799 calls)
     cdiaghg      :     16.49s CPU     16.81s WALL (   25199 calls)

     Called by h_psi:
     h_psi:pot    :    418.14s CPU    430.44s WALL (   25999 calls)
     h_psi:calbec :      7.44s CPU      7.66s WALL (   25999 calls)
     vloc_psi     :    405.79s CPU    417.74s WALL (   25999 calls)
     add_vuspsi   :      4.90s CPU      4.95s WALL (   25999 calls)

     General routines
     calbec       :      9.87s CPU     10.10s WALL (   32399 calls)
     fft          :      0.65s CPU      0.77s WALL (     140 calls)
     ffts         :      0.02s CPU      0.02s WALL (      17 calls)
     fftw         :    338.84s CPU    349.41s WALL (  802630 calls)
     interpolate  :      0.11s CPU      0.11s WALL (      17 calls)
     davcio       :      0.02s CPU      0.05s WALL (     800 calls)

     Parallel routines
     fft_scatter  :     72.76s CPU     76.40s WALL (  802787 calls)

     PWSCF        :  9m25.25s CPU     9m56.58s WALL


   This run was terminated on:  10: 2:21  13Nov2017            

=------------------------------------------------------------------------------=
   JOB DONE.
=------------------------------------------------------------------------------=
