
     Program PWSCF v.6.1 (svn rev. 13369) starts on 11Nov2017 at 16:28: 2 

     This program is part of the open-source Quantum ESPRESSO suite
     for quantum simulation of materials; please cite
         "P. Giannozzi et al., J. Phys.:Condens. Matter 21 395502 (2009);
          URL http://www.quantum-espresso.org", 
     in publications or presentations arising from this work. More details at
     http://www.quantum-espresso.org/quote

     Parallel version (MPI), running on     4 processors
     R & G space division:  proc/nbgrp/npool/nimage =       4
     Waiting for input...
     Reading input from standard input
     Message from routine read_cards :
     DEPRECATED: no units specified in ATOMIC_POSITIONS card
     Message from routine read_cards :
     ATOMIC_POSITIONS: units set to alat

     Current dimensions of program PWSCF are:
     Max number of different atomic species (ntypx) = 10
     Max number of k-points (npk) =  40000
     Max angular momentum in pseudopotentials (lmaxx) =  3

     Subspace diagonalization in iterative solution of the eigenvalue problem:
     a serial algorithm will be used


     Parallelization info
     --------------------
     sticks:   dense  smooth     PW     G-vecs:    dense   smooth      PW
     Min         540     267     82                16574     5850     985
     Max         541     268     85                16577     5854     986
     Sum        2161    1069    337                66299    23409    3943



     bravais-lattice index     =            2
     lattice parameter (alat)  =      12.5200  a.u.
     unit-cell volume          =     490.6288 (a.u.)^3
     number of atoms/cell      =            2
     number of atomic types    =            1
     number of electrons       =        28.00
     number of Kohn-Sham states=           14
     kinetic-energy cutoff     =      50.0000  Ry
     charge density cutoff     =     400.0000  Ry
     convergence threshold     =      1.0E-08
     mixing beta               =       0.7000
     number of iterations used =            8  plain     mixing
     Exchange-correlation      =  SLA  PW   PBX  PBC ( 1  4  3  4 0 0)

     celldm(1)=  12.520000  celldm(2)=   0.000000  celldm(3)=   0.000000
     celldm(4)=   0.000000  celldm(5)=   0.000000  celldm(6)=   0.000000

     crystal axes: (cart. coord. in units of alat)
               a(1) = (  -0.500000   0.000000   0.500000 )  
               a(2) = (   0.000000   0.500000   0.500000 )  
               a(3) = (  -0.500000   0.500000   0.000000 )  

     reciprocal axes: (cart. coord. in units 2 pi/alat)
               b(1) = ( -1.000000 -1.000000  1.000000 )  
               b(2) = (  1.000000  1.000000  1.000000 )  
               b(3) = ( -1.000000  1.000000 -1.000000 )  


     PseudoPot. # 1 for Sn read from file:
     /home/s1333534/quantum_espresso/qe-6.1/pseudo/sn_pbe_v1.4.uspp.F.UPF
     MD5 check sum: 469debedee59599fedebd795477fea03
     Pseudo is Ultrasoft + core correction, Zval = 14.0
     Generated by new atomic code, or converted to UPF format
     Using radial grid of  891 points,  6 beta functions with: 
                l(1) =   0
                l(2) =   0
                l(3) =   1
                l(4) =   1
                l(5) =   2
                l(6) =   2
     Q(r) pseudized with  8 coefficients,  rinner =    1.350   1.350   1.350
                                                       1.350   1.350

     atomic species   valence    mass     pseudopotential
        Sn            14.00   118.71000     Sn( 1.00)

     48 Sym. Ops., with inversion, found (24 have fractional translation)



   Cartesian axes

     site n.     atom                  positions (alat units)
         1           Sn  tau(   1) = (   0.0000000   0.0000000   0.0000000  )
         2           Sn  tau(   2) = (   0.2500000   0.2500000   0.2500000  )

     number of k points=   182

     Number of k-points >= 100: set verbosity='high' to print them.

     Dense  grid:    66299 G-vectors     FFT dimensions: (  60,  60,  60)

     Smooth grid:    23409 G-vectors     FFT dimensions: (  40,  40,  40)

     Estimated max dynamical RAM per process >      40.64MB

     Estimated total allocated dynamical RAM >     162.55MB

     Initial potential from superposition of free atoms

     starting charge   25.99991, renormalised to   28.00000
     Starting wfc are   18 randomized atomic wfcs

     total cpu time spent up to now is        3.1 secs

     per-process dynamical memory:    45.8 Mb

     Self-consistent Calculation

     iteration #  1     ecut=    50.00 Ry     beta=0.70
     Davidson diagonalization with overlap
     ethr =  1.00E-02,  avg # of iterations =  2.7

     total cpu time spent up to now is       10.3 secs

     total energy              =    -317.48659160 Ry
     Harris-Foulkes estimate   =    -319.54657134 Ry
     estimated scf accuracy    <       2.50994263 Ry

     iteration #  2     ecut=    50.00 Ry     beta=0.70
     Davidson diagonalization with overlap
     ethr =  8.96E-03,  avg # of iterations =  3.0

     total cpu time spent up to now is       17.9 secs

     total energy              =    -318.39383249 Ry
     Harris-Foulkes estimate   =    -318.71174196 Ry
     estimated scf accuracy    <       0.47351080 Ry

     iteration #  3     ecut=    50.00 Ry     beta=0.70
     Davidson diagonalization with overlap
     ethr =  1.69E-03,  avg # of iterations =  2.0

     total cpu time spent up to now is       24.6 secs

     total energy              =    -318.48880574 Ry
     Harris-Foulkes estimate   =    -318.49037709 Ry
     estimated scf accuracy    <       0.00287978 Ry

     iteration #  4     ecut=    50.00 Ry     beta=0.70
     Davidson diagonalization with overlap
     ethr =  1.03E-05,  avg # of iterations =  3.0

     total cpu time spent up to now is       31.7 secs

     total energy              =    -318.48969621 Ry
     Harris-Foulkes estimate   =    -318.48981374 Ry
     estimated scf accuracy    <       0.00017425 Ry

     iteration #  5     ecut=    50.00 Ry     beta=0.70
     Davidson diagonalization with overlap
     ethr =  6.22E-07,  avg # of iterations =  3.0

     total cpu time spent up to now is       39.0 secs

     total energy              =    -318.48974944 Ry
     Harris-Foulkes estimate   =    -318.48975011 Ry
     estimated scf accuracy    <       0.00000143 Ry

     iteration #  6     ecut=    50.00 Ry     beta=0.70
     Davidson diagonalization with overlap
     ethr =  5.10E-09,  avg # of iterations =  4.0

     total cpu time spent up to now is       46.8 secs

     total energy              =    -318.48975017 Ry
     Harris-Foulkes estimate   =    -318.48975022 Ry
     estimated scf accuracy    <       0.00000008 Ry

     iteration #  7     ecut=    50.00 Ry     beta=0.70
     Davidson diagonalization with overlap
     ethr =  2.86E-10,  avg # of iterations =  3.1

     total cpu time spent up to now is       54.2 secs

     End of self-consistent calculation

     Number of k-points >= 100: set verbosity='high' to print the bands.

     highest occupied level (ev):     7.1337

!    total energy              =    -318.48975020 Ry
     Harris-Foulkes estimate   =    -318.48975020 Ry
     estimated scf accuracy    <          2.3E-09 Ry

     The total energy is the sum of the following terms:

     one-electron contribution =    -161.00668267 Ry
     hartree contribution      =      97.15112489 Ry
     xc contribution           =     -85.97406196 Ry
     ewald contribution        =    -168.66013046 Ry

     convergence has been achieved in   7 iterations

     Writing output data file sn.alpha.12.520.save

     init_run     :      2.80s CPU      2.99s WALL (       1 calls)
     electrons    :     49.67s CPU     51.23s WALL (       1 calls)

     Called by init_run:
     wfcinit      :      2.33s CPU      2.48s WALL (       1 calls)
     potinit      :      0.06s CPU      0.06s WALL (       1 calls)

     Called by electrons:
     c_bands      :     41.81s CPU     43.03s WALL (       7 calls)
     sum_band     :      7.00s CPU      7.24s WALL (       7 calls)
     v_of_rho     :      0.36s CPU      0.38s WALL (       8 calls)
     newd         :      0.54s CPU      0.60s WALL (       8 calls)
     mix_rho      :      0.03s CPU      0.03s WALL (       7 calls)

     Called by c_bands:
     init_us_2    :      1.22s CPU      1.24s WALL (    2730 calls)
     cegterg      :     39.69s CPU     40.87s WALL (    1274 calls)

     Called by sum_band:
     sum_band:bec :      0.01s CPU      0.01s WALL (    1274 calls)
     addusdens    :      0.54s CPU      0.64s WALL (       7 calls)

     Called by *egterg:
     h_psi        :     34.28s CPU     35.50s WALL (    5231 calls)
     s_psi        :      0.64s CPU      0.64s WALL (    5231 calls)
     g_psi        :      0.23s CPU      0.23s WALL (    3775 calls)
     cdiaghg      :      2.22s CPU      2.24s WALL (    5049 calls)

     Called by h_psi:
     h_psi:pot    :     33.99s CPU     35.20s WALL (    5231 calls)
     h_psi:calbec :      1.45s CPU      1.48s WALL (    5231 calls)
     vloc_psi     :     31.75s CPU     32.90s WALL (    5231 calls)
     add_vuspsi   :      0.78s CPU      0.80s WALL (    5231 calls)

     General routines
     calbec       :      1.83s CPU      1.86s WALL (    6505 calls)
     fft          :      0.17s CPU      0.19s WALL (     124 calls)
     ffts         :      0.01s CPU      0.01s WALL (      15 calls)
     fftw         :     29.68s CPU     30.77s WALL (  138256 calls)
     interpolate  :      0.04s CPU      0.04s WALL (      15 calls)
     davcio       :      0.00s CPU      0.01s WALL (     182 calls)

     Parallel routines
     fft_scatter  :      5.18s CPU      5.09s WALL (  138395 calls)

     PWSCF        :    52.79s CPU        57.48s WALL


   This run was terminated on:  16:28:59  11Nov2017            

=------------------------------------------------------------------------------=
   JOB DONE.
=------------------------------------------------------------------------------=
