
     Program PWSCF v.6.1 (svn rev. 13369) starts on 11Nov2017 at 15:34: 8 

     This program is part of the open-source Quantum ESPRESSO suite
     for quantum simulation of materials; please cite
         "P. Giannozzi et al., J. Phys.:Condens. Matter 21 395502 (2009);
          URL http://www.quantum-espresso.org", 
     in publications or presentations arising from this work. More details at
     http://www.quantum-espresso.org/quote

     Parallel version (MPI), running on     4 processors
     R & G space division:  proc/nbgrp/npool/nimage =       4
     Waiting for input...
     Reading input from standard input
     Message from routine read_cards :
     DEPRECATED: no units specified in ATOMIC_POSITIONS card
     Message from routine read_cards :
     ATOMIC_POSITIONS: units set to alat

     Current dimensions of program PWSCF are:
     Max number of different atomic species (ntypx) = 10
     Max number of k-points (npk) =  40000
     Max angular momentum in pseudopotentials (lmaxx) =  3

     Subspace diagonalization in iterative solution of the eigenvalue problem:
     a serial algorithm will be used


     Parallelization info
     --------------------
     sticks:   dense  smooth     PW     G-vecs:    dense   smooth      PW
     Min         634     320     94                21196     7538    1238
     Max         635     322     95                21198     7539    1240
     Sum        2539    1285    379                84787    30155    4957



     bravais-lattice index     =            2
     lattice parameter (alat)  =      13.6000  a.u.
     unit-cell volume          =     628.8640 (a.u.)^3
     number of atoms/cell      =            2
     number of atomic types    =            1
     number of electrons       =        28.00
     number of Kohn-Sham states=           14
     kinetic-energy cutoff     =      50.0000  Ry
     charge density cutoff     =     400.0000  Ry
     convergence threshold     =      1.0E-08
     mixing beta               =       0.7000
     number of iterations used =            8  plain     mixing
     Exchange-correlation      =  SLA  PW   PBX  PBC ( 1  4  3  4 0 0)

     celldm(1)=  13.600000  celldm(2)=   0.000000  celldm(3)=   0.000000
     celldm(4)=   0.000000  celldm(5)=   0.000000  celldm(6)=   0.000000

     crystal axes: (cart. coord. in units of alat)
               a(1) = (  -0.500000   0.000000   0.500000 )  
               a(2) = (   0.000000   0.500000   0.500000 )  
               a(3) = (  -0.500000   0.500000   0.000000 )  

     reciprocal axes: (cart. coord. in units 2 pi/alat)
               b(1) = ( -1.000000 -1.000000  1.000000 )  
               b(2) = (  1.000000  1.000000  1.000000 )  
               b(3) = ( -1.000000  1.000000 -1.000000 )  


     PseudoPot. # 1 for Sn read from file:
     /home/s1333534/quantum_espresso/qe-6.1/pseudo/sn_pbe_v1.4.uspp.F.UPF
     MD5 check sum: 469debedee59599fedebd795477fea03
     Pseudo is Ultrasoft + core correction, Zval = 14.0
     Generated by new atomic code, or converted to UPF format
     Using radial grid of  891 points,  6 beta functions with: 
                l(1) =   0
                l(2) =   0
                l(3) =   1
                l(4) =   1
                l(5) =   2
                l(6) =   2
     Q(r) pseudized with  8 coefficients,  rinner =    1.350   1.350   1.350
                                                       1.350   1.350

     atomic species   valence    mass     pseudopotential
        Sn            14.00   118.71000     Sn( 1.00)

     48 Sym. Ops., with inversion, found (24 have fractional translation)



   Cartesian axes

     site n.     atom                  positions (alat units)
         1           Sn  tau(   1) = (   0.0000000   0.0000000   0.0000000  )
         2           Sn  tau(   2) = (   0.2500000   0.2500000   0.2500000  )

     number of k points=    60
                       cart. coord. in units 2pi/alat
        k(    1) = (  -0.0625000   0.0625000   0.0625000), wk =   0.0078125
        k(    2) = (  -0.1875000   0.1875000  -0.0625000), wk =   0.0234375
        k(    3) = (  -0.3125000   0.3125000  -0.1875000), wk =   0.0234375
        k(    4) = (  -0.4375000   0.4375000  -0.3125000), wk =   0.0234375
        k(    5) = (   0.4375000  -0.4375000   0.5625000), wk =   0.0234375
        k(    6) = (   0.3125000  -0.3125000   0.4375000), wk =   0.0234375
        k(    7) = (   0.1875000  -0.1875000   0.3125000), wk =   0.0234375
        k(    8) = (   0.0625000  -0.0625000   0.1875000), wk =   0.0234375
        k(    9) = (  -0.0625000   0.3125000   0.0625000), wk =   0.0234375
        k(   10) = (  -0.1875000   0.4375000  -0.0625000), wk =   0.0468750
        k(   11) = (  -0.3125000   0.5625000  -0.1875000), wk =   0.0468750
        k(   12) = (   0.5625000  -0.3125000   0.6875000), wk =   0.0468750
        k(   13) = (   0.4375000  -0.1875000   0.5625000), wk =   0.0468750
        k(   14) = (   0.3125000  -0.0625000   0.4375000), wk =   0.0468750
        k(   15) = (   0.1875000   0.0625000   0.3125000), wk =   0.0468750
        k(   16) = (  -0.0625000   0.5625000   0.0625000), wk =   0.0234375
        k(   17) = (  -0.1875000   0.6875000  -0.0625000), wk =   0.0468750
        k(   18) = (   0.6875000  -0.1875000   0.8125000), wk =   0.0468750
        k(   19) = (   0.5625000  -0.0625000   0.6875000), wk =   0.0468750
        k(   20) = (   0.4375000   0.0625000   0.5625000), wk =   0.0468750
        k(   21) = (   0.3125000   0.1875000   0.4375000), wk =   0.0468750
        k(   22) = (  -0.0625000   0.8125000   0.0625000), wk =   0.0234375
        k(   23) = (   0.8125000  -0.0625000   0.9375000), wk =   0.0468750
        k(   24) = (   0.6875000   0.0625000   0.8125000), wk =   0.0468750
        k(   25) = (   0.5625000   0.1875000   0.6875000), wk =   0.0468750
        k(   26) = (   0.4375000   0.3125000   0.5625000), wk =   0.0468750
        k(   27) = (  -0.0625000  -0.9375000   0.0625000), wk =   0.0234375
        k(   28) = (  -0.1875000  -0.8125000  -0.0625000), wk =   0.0468750
        k(   29) = (  -0.3125000  -0.6875000  -0.1875000), wk =   0.0468750
        k(   30) = (  -0.0625000  -0.6875000   0.0625000), wk =   0.0234375
        k(   31) = (  -0.1875000  -0.5625000  -0.0625000), wk =   0.0468750
        k(   32) = (  -0.0625000  -0.4375000   0.0625000), wk =   0.0234375
        k(   33) = (  -0.1875000   0.1875000   0.1875000), wk =   0.0078125
        k(   34) = (  -0.3125000   0.3125000   0.0625000), wk =   0.0234375
        k(   35) = (  -0.4375000   0.4375000  -0.0625000), wk =   0.0234375
        k(   36) = (   0.4375000  -0.4375000   0.8125000), wk =   0.0234375
        k(   37) = (   0.3125000  -0.3125000   0.6875000), wk =   0.0234375
        k(   38) = (   0.1875000  -0.1875000   0.5625000), wk =   0.0234375
        k(   39) = (  -0.1875000   0.4375000   0.1875000), wk =   0.0234375
        k(   40) = (  -0.3125000   0.5625000   0.0625000), wk =   0.0468750
        k(   41) = (   0.5625000  -0.3125000   0.9375000), wk =   0.0468750
        k(   42) = (   0.4375000  -0.1875000   0.8125000), wk =   0.0468750
        k(   43) = (   0.3125000  -0.0625000   0.6875000), wk =   0.0468750
        k(   44) = (  -0.1875000   0.6875000   0.1875000), wk =   0.0234375
        k(   45) = (   0.6875000  -0.1875000   1.0625000), wk =   0.0468750
        k(   46) = (   0.5625000  -0.0625000   0.9375000), wk =   0.0468750
        k(   47) = (   0.4375000   0.0625000   0.8125000), wk =   0.0468750
        k(   48) = (  -0.1875000  -1.0625000   0.1875000), wk =   0.0234375
        k(   49) = (  -0.3125000  -0.9375000   0.0625000), wk =   0.0468750
        k(   50) = (  -0.1875000  -0.8125000   0.1875000), wk =   0.0234375
        k(   51) = (  -0.3125000   0.3125000   0.3125000), wk =   0.0078125
        k(   52) = (  -0.4375000   0.4375000   0.1875000), wk =   0.0234375
        k(   53) = (   0.4375000  -0.4375000   1.0625000), wk =   0.0234375
        k(   54) = (   0.3125000  -0.3125000   0.9375000), wk =   0.0234375
        k(   55) = (  -0.3125000   0.5625000   0.3125000), wk =   0.0234375
        k(   56) = (   0.5625000  -0.3125000   1.1875000), wk =   0.0468750
        k(   57) = (   0.4375000  -0.1875000   1.0625000), wk =   0.0468750
        k(   58) = (  -0.3125000  -1.1875000   0.3125000), wk =   0.0234375
        k(   59) = (  -0.4375000   0.4375000   0.4375000), wk =   0.0078125
        k(   60) = (   0.4375000  -0.4375000   1.3125000), wk =   0.0234375

     Dense  grid:    84787 G-vectors     FFT dimensions: (  64,  64,  64)

     Smooth grid:    30155 G-vectors     FFT dimensions: (  45,  45,  45)

     Estimated max dynamical RAM per process >      27.33MB

     Estimated total allocated dynamical RAM >     109.32MB

     Initial potential from superposition of free atoms

     starting charge   25.99991, renormalised to   28.00000
     Starting wfc are   18 randomized atomic wfcs

     total cpu time spent up to now is        1.7 secs

     per-process dynamical memory:    30.6 Mb

     Self-consistent Calculation

     iteration #  1     ecut=    50.00 Ry     beta=0.70
     Davidson diagonalization with overlap
     ethr =  1.00E-02,  avg # of iterations =  2.0

     total cpu time spent up to now is        5.3 secs

     total energy              =    -317.42681362 Ry
     Harris-Foulkes estimate   =    -319.56430432 Ry
     estimated scf accuracy    <       2.60123994 Ry

     iteration #  2     ecut=    50.00 Ry     beta=0.70
     Davidson diagonalization with overlap
     ethr =  9.29E-03,  avg # of iterations =  3.0

     total cpu time spent up to now is        9.4 secs

     total energy              =    -318.36318426 Ry
     Harris-Foulkes estimate   =    -318.68885904 Ry
     estimated scf accuracy    <       0.48091037 Ry

     iteration #  3     ecut=    50.00 Ry     beta=0.70
     Davidson diagonalization with overlap
     ethr =  1.72E-03,  avg # of iterations =  2.0

     total cpu time spent up to now is       13.0 secs

     total energy              =    -318.46131153 Ry
     Harris-Foulkes estimate   =    -318.46282656 Ry
     estimated scf accuracy    <       0.00282610 Ry

     iteration #  4     ecut=    50.00 Ry     beta=0.70
     Davidson diagonalization with overlap
     ethr =  1.01E-05,  avg # of iterations =  2.9

     total cpu time spent up to now is       16.8 secs

     total energy              =    -318.46215192 Ry
     Harris-Foulkes estimate   =    -318.46225193 Ry
     estimated scf accuracy    <       0.00014755 Ry

     iteration #  5     ecut=    50.00 Ry     beta=0.70
     Davidson diagonalization with overlap
     ethr =  5.27E-07,  avg # of iterations =  3.2

     total cpu time spent up to now is       20.8 secs

     total energy              =    -318.46220005 Ry
     Harris-Foulkes estimate   =    -318.46220069 Ry
     estimated scf accuracy    <       0.00000138 Ry

     iteration #  6     ecut=    50.00 Ry     beta=0.70
     Davidson diagonalization with overlap
     ethr =  4.91E-09,  avg # of iterations =  4.4

     total cpu time spent up to now is       24.7 secs

     total energy              =    -318.46220086 Ry
     Harris-Foulkes estimate   =    -318.46220089 Ry
     estimated scf accuracy    <       0.00000005 Ry

     iteration #  7     ecut=    50.00 Ry     beta=0.70
     Davidson diagonalization with overlap
     ethr =  1.79E-10,  avg # of iterations =  3.4

     total cpu time spent up to now is       28.8 secs

     End of self-consistent calculation

          k =-0.0625 0.0625 0.0625 (  3752 PWs)   bands (ev):

   -16.8465 -16.8465 -16.8448 -16.8169 -16.8169 -16.6997 -16.6997 -16.6875
   -16.6843 -16.6843  -4.3654   1.7864   4.5435   4.5435

          k =-0.1875 0.1875-0.0625 (  3748 PWs)   bands (ev):

   -16.8520 -16.8499 -16.8423 -16.8116 -16.8088 -16.7099 -16.7057 -16.6884
   -16.6806 -16.6766  -4.2232   1.1648   4.0627   4.4376

          k =-0.3125 0.3125-0.1875 (  3750 PWs)   bands (ev):

   -16.8575 -16.8564 -16.8361 -16.8030 -16.7985 -16.7195 -16.7145 -16.6960
   -16.6724 -16.6702  -3.8898   0.1514   3.6476   4.1272

          k =-0.4375 0.4375-0.3125 (  3755 PWs)   bands (ev):

   -16.8612 -16.8606 -16.8301 -16.7959 -16.7927 -16.7246 -16.7206 -16.7032
   -16.6672 -16.6668  -3.4652  -0.7483   3.4195   3.8591

          k = 0.4375-0.4375 0.5625 (  3759 PWs)   bands (ev):

   -16.8627 -16.8610 -16.8283 -16.7931 -16.7927 -16.7245 -16.7237 -16.7046
   -16.6670 -16.6652  -3.2868  -1.0534   3.3980   3.7320

          k = 0.3125-0.3125 0.4375 (  3754 PWs)   bands (ev):

   -16.8609 -16.8586 -16.8325 -16.7977 -16.7937 -16.7245 -16.7187 -16.7004
   -16.6696 -16.6667  -3.6028  -0.4876   3.5766   3.7764

          k = 0.1875-0.1875 0.3125 (  3747 PWs)   bands (ev):

   -16.8560 -16.8538 -16.8390 -16.8060 -16.8009 -16.7183 -16.7107 -16.6924
   -16.6751 -16.6721  -4.0183   0.4968   3.9217   3.9873

          k = 0.0625-0.0625 0.1875 (  3755 PWs)   bands (ev):

   -16.8492 -16.8481 -16.8446 -16.8147 -16.8113 -16.7081 -16.7012 -16.6866
   -16.6831 -16.6800  -4.2936   1.4522   4.3063   4.3107

          k =-0.0625 0.3125 0.0625 (  3740 PWs)   bands (ev):

   -16.8523 -16.8509 -16.8446 -16.8105 -16.8012 -16.7201 -16.7048 -16.6841
   -16.6793 -16.6765  -4.1508   0.9389   3.9528   3.9761

          k =-0.1875 0.4375-0.0625 (  3751 PWs)   bands (ev):

   -16.8587 -16.8568 -16.8377 -16.8029 -16.7898 -16.7323 -16.7127 -16.6912
   -16.6723 -16.6694  -3.8759   0.1866   3.3888   3.7738

          k =-0.3125 0.5625-0.1875 (  3763 PWs)   bands (ev):

   -16.8661 -16.8614 -16.8260 -16.7939 -16.7827 -16.7386 -16.7221 -16.7044
   -16.6666 -16.6618  -3.4581  -0.6714   2.9583   3.5569

          k = 0.5625-0.3125 0.6875 (  3744 PWs)   bands (ev):

   -16.8692 -16.8635 -16.8178 -16.7869 -16.7837 -16.7350 -16.7298 -16.7133
   -16.6638 -16.6577  -3.1347  -1.1954   2.7379   3.5098

          k = 0.4375-0.1875 0.5625 (  3753 PWs)   bands (ev):

   -16.8676 -16.8631 -16.8199 -16.7925 -16.7834 -16.7350 -16.7241 -16.7125
   -16.6639 -16.6601  -3.3232  -0.9021   2.7654   3.6582

          k = 0.3125-0.0625 0.4375 (  3748 PWs)   bands (ev):

   -16.8613 -16.8601 -16.8302 -16.8007 -16.7897 -16.7301 -16.7158 -16.7003
   -16.6682 -16.6666  -3.7523  -0.1027   3.0839   3.9371

          k = 0.1875 0.0625 0.3125 (  3739 PWs)   bands (ev):

   -16.8551 -16.8529 -16.8404 -16.8080 -16.8007 -16.7192 -16.7083 -16.6894
   -16.6769 -16.6728  -4.0834   0.7111   3.7232   4.1478

          k =-0.0625 0.5625 0.0625 (  3751 PWs)   bands (ev):

   -16.8603 -16.8591 -16.8386 -16.7959 -16.7749 -16.7498 -16.7188 -16.6882
   -16.6693 -16.6678  -3.6593  -0.2436   3.2966   3.3615

          k =-0.1875 0.6875-0.0625 (  3755 PWs)   bands (ev):

   -16.8665 -16.8641 -16.8262 -16.7859 -16.7635 -16.7613 -16.7291 -16.7011
   -16.6633 -16.6609  -3.2711  -0.9111   2.8786   3.1649

          k = 0.6875-0.1875 0.8125 (  3756 PWs)   bands (ev):

   -16.8734 -16.8664 -16.8107 -16.7759 -16.7652 -16.7590 -16.7398 -16.7171
   -16.6604 -16.6535  -2.8535  -1.4896   2.4505   3.1408

          k = 0.5625-0.0625 0.6875 (  3762 PWs)   bands (ev):

   -16.8746 -16.8666 -16.8068 -16.7779 -16.7700 -16.7494 -16.7418 -16.7221
   -16.6602 -16.6526  -2.9071  -1.4212   2.3008   3.3262

          k = 0.4375 0.0625 0.5625 (  3753 PWs)   bands (ev):

   -16.8692 -16.8642 -16.8163 -16.7924 -16.7792 -16.7396 -16.7240 -16.7158
   -16.6627 -16.6586  -3.3376  -0.8353   2.5737   3.6426

          k = 0.3125 0.1875 0.4375 (  3755 PWs)   bands (ev):

   -16.8615 -16.8587 -16.8318 -16.7995 -16.7917 -16.7276 -16.7169 -16.6999
   -16.6696 -16.6664  -3.7012  -0.2512   3.2991   3.8664

          k =-0.0625 0.8125 0.0625 (  3756 PWs)   bands (ev):

   -16.8668 -16.8659 -16.8219 -16.7812 -16.7749 -16.7449 -16.7396 -16.7047
   -16.6612 -16.6601  -2.9145  -1.4117   2.8959   2.9828

          k = 0.8125-0.0625 0.9375 (  3762 PWs)   bands (ev):

   -16.8706 -16.8682 -16.8060 -16.7908 -16.7634 -16.7512 -16.7357 -16.7210
   -16.6584 -16.6560  -2.4507  -1.9542   2.6535   2.8779

          k = 0.6875 0.0625 0.8125 (  3763 PWs)   bands (ev):

   -16.8750 -16.8679 -16.8041 -16.7717 -16.7658 -16.7538 -16.7497 -16.7231
   -16.6589 -16.6516  -2.5704  -1.8132   2.3375   3.0560

          k = 0.5625 0.1875 0.6875 (  3750 PWs)   bands (ev):

   -16.8727 -16.8654 -16.8111 -16.7815 -16.7766 -16.7429 -16.7365 -16.7187
   -16.6614 -16.6543  -2.9917  -1.3426   2.4565   3.3882

          k = 0.4375 0.3125 0.5625 (  3755 PWs)   bands (ev):

   -16.8651 -16.8617 -16.8248 -16.7927 -16.7891 -16.7288 -16.7237 -16.7080
   -16.6660 -16.6625  -3.3022  -0.9922   3.0882   3.6857

          k =-0.0625-0.9375 0.0625 (  3770 PWs)   bands (ev):

   -16.8685 -16.8673 -16.8103 -16.7962 -16.7632 -16.7512 -16.7307 -16.7168
   -16.6594 -16.6584  -2.4591  -1.9541   2.8136   2.9047

          k =-0.1875-0.8125-0.0625 (  3758 PWs)   bands (ev):

   -16.8693 -16.8668 -16.8168 -16.7769 -16.7750 -16.7489 -16.7398 -16.7101
   -16.6601 -16.6577  -2.8833  -1.4467   2.7285   2.9755

          k =-0.3125-0.6875-0.1875 (  3756 PWs)   bands (ev):

   -16.8702 -16.8641 -16.8187 -16.7856 -16.7725 -16.7504 -16.7301 -16.7101
   -16.6633 -16.6570  -3.1695  -1.0901   2.6649   3.3093

          k =-0.0625-0.6875 0.0625 (  3749 PWs)   bands (ev):

   -16.8641 -16.8629 -16.8316 -16.7859 -16.7654 -16.7601 -16.7285 -16.6950
   -16.6645 -16.6634  -3.3165  -0.8379   3.0586   3.1368

          k =-0.1875-0.5625-0.0625 (  3751 PWs)   bands (ev):

   -16.8628 -16.8605 -16.8331 -16.7953 -16.7770 -16.7468 -16.7199 -16.6949
   -16.6675 -16.6650  -3.6038  -0.3619   3.1013   3.4362

          k =-0.0625-0.4375 0.0625 (  3738 PWs)   bands (ev):

   -16.8560 -16.8548 -16.8429 -16.8041 -16.7888 -16.7343 -16.7106 -16.6843
   -16.6743 -16.6726  -3.9385   0.3568   3.6008   3.6475

          k =-0.1875 0.1875 0.1875 (  3756 PWs)   bands (ev):

   -16.8524 -16.8524 -16.8410 -16.8082 -16.8082 -16.7097 -16.7097 -16.6911
   -16.6766 -16.6766  -4.1545   0.9067   4.2578   4.2578

          k =-0.3125 0.3125 0.0625 (  3740 PWs)   bands (ev):

   -16.8577 -16.8565 -16.8353 -16.8046 -16.7975 -16.7209 -16.7130 -16.6952
   -16.6730 -16.6696  -3.9497   0.3386   3.3972   4.2212

          k =-0.4375 0.4375-0.0625 (  3755 PWs)   bands (ev):

   -16.8653 -16.8623 -16.8228 -16.7978 -16.7862 -16.7319 -16.7191 -16.7097
   -16.6649 -16.6631  -3.5711  -0.4554   2.7972   3.9151

          k = 0.4375-0.4375 0.8125 (  3746 PWs)   bands (ev):

   -16.8703 -16.8640 -16.8149 -16.7882 -16.7815 -16.7352 -16.7303 -16.7170
   -16.6627 -16.6568  -3.1616  -1.1339   2.5851   3.6055

          k = 0.3125-0.3125 0.6875 (  3752 PWs)   bands (ev):

   -16.8702 -16.8633 -16.8187 -16.7856 -16.7794 -16.7421 -16.7300 -16.7110
   -16.6641 -16.6572  -3.1494  -1.1520   2.7043   3.4333

          k = 0.1875-0.1875 0.5625 (  3760 PWs)   bands (ev):

   -16.8649 -16.8600 -16.8309 -16.7947 -16.7796 -16.7435 -16.7207 -16.6978
   -16.6685 -16.6629  -3.5541  -0.4767   3.0896   3.4475

          k =-0.1875 0.4375 0.1875 (  3745 PWs)   bands (ev):

   -16.8603 -16.8563 -16.8358 -16.8015 -16.7911 -16.7301 -16.7143 -16.6939
   -16.6721 -16.6676  -3.8169   0.0215   3.4796   3.7030

          k =-0.3125 0.5625 0.0625 (  3749 PWs)   bands (ev):

   -16.8657 -16.8629 -16.8247 -16.7943 -16.7792 -16.7425 -16.7213 -16.7049
   -16.6644 -16.6623  -3.4950  -0.5711   2.8263   3.5591

          k = 0.5625-0.3125 0.9375 (  3751 PWs)   bands (ev):

   -16.8722 -16.8668 -16.8096 -16.7842 -16.7698 -16.7511 -16.7329 -16.7198
   -16.6600 -16.6549  -3.0591  -1.2225   2.4346   3.2824

          k = 0.4375-0.1875 0.8125 (  3755 PWs)   bands (ev):

   -16.8739 -16.8676 -16.8062 -16.7775 -16.7676 -16.7542 -16.7398 -16.7221
   -16.6593 -16.6530  -2.8406  -1.5082   2.3955   3.1289

          k = 0.3125-0.0625 0.6875 (  3757 PWs)   bands (ev):

   -16.8694 -16.8659 -16.8176 -16.7856 -16.7673 -16.7561 -16.7301 -16.7107
   -16.6611 -16.6580  -3.1833  -1.0457   2.6429   3.2135

          k =-0.1875 0.6875 0.1875 (  3755 PWs)   bands (ev):

   -16.8688 -16.8632 -16.8238 -16.7857 -16.7674 -16.7568 -16.7294 -16.7039
   -16.6642 -16.6585  -3.2355  -0.9770   2.7804   3.2428

          k = 0.6875-0.1875 1.0625 (  3756 PWs)   bands (ev):

   -16.8718 -16.8687 -16.8087 -16.7752 -16.7700 -16.7545 -16.7405 -16.7186
   -16.6582 -16.6550  -2.8249  -1.5134   2.5397   2.9444

          k = 0.5625-0.0625 0.9375 (  3761 PWs)   bands (ev):

   -16.8743 -16.8718 -16.7926 -16.7755 -16.7651 -16.7530 -16.7484 -16.7336
   -16.6548 -16.6522  -2.4298  -1.9549   2.4231   2.7155

          k = 0.4375 0.0625 0.8125 (  3757 PWs)   bands (ev):

   -16.8739 -16.8696 -16.8016 -16.7749 -16.7639 -16.7588 -16.7426 -16.7259
   -16.6570 -16.6530  -2.7466  -1.6047   2.3887   2.9503

          k =-0.1875-1.0625 0.1875 (  3764 PWs)   bands (ev):

   -16.8733 -16.8672 -16.8066 -16.7824 -16.7642 -16.7508 -16.7438 -16.7206
   -16.6596 -16.6532  -2.4961  -1.9011   2.4582   3.0287

          k =-0.3125-0.9375 0.0625 (  3764 PWs)   bands (ev):

   -16.8730 -16.8702 -16.7990 -16.7826 -16.7641 -16.7519 -16.7431 -16.7278
   -16.6564 -16.6535  -2.4386  -1.9545   2.5064   2.7861

          k =-0.1875-0.8125 0.1875 (  3751 PWs)   bands (ev):

   -16.8718 -16.8656 -16.8149 -16.7752 -16.7715 -16.7538 -16.7396 -16.7123
   -16.6611 -16.6550  -2.8712  -1.4642   2.5670   3.1010

          k =-0.3125 0.3125 0.3125 (  3750 PWs)   bands (ev):

   -16.8575 -16.8575 -16.8360 -16.7993 -16.7993 -16.7181 -16.7181 -16.6971
   -16.6703 -16.6703  -3.7724  -0.1476   3.9664   3.9664

          k =-0.4375 0.4375 0.1875 (  3756 PWs)   bands (ev):

   -16.8636 -16.8615 -16.8260 -16.7972 -16.7891 -16.7286 -16.7197 -16.7070
   -16.6656 -16.6649  -3.5338  -0.5716   3.0257   3.8970

          k = 0.4375-0.4375 1.0625 (  3752 PWs)   bands (ev):

   -16.8723 -16.8650 -16.8107 -16.7866 -16.7762 -16.7406 -16.7331 -16.7202
   -16.6619 -16.6548  -3.1384  -1.1252   2.3907   3.5743

          k = 0.3125-0.3125 0.9375 (  3760 PWs)   bands (ev):

   -16.8756 -16.8665 -16.8065 -16.7685 -16.7666 -16.7578 -16.7473 -16.7214
   -16.6602 -16.6512  -2.7389  -1.6238   2.2655   3.2622

          k =-0.3125 0.5625 0.3125 (  3756 PWs)   bands (ev):

   -16.8655 -16.8609 -16.8264 -16.7931 -16.7870 -16.7329 -16.7227 -16.7049
   -16.6674 -16.6619  -3.3899  -0.8293   3.1028   3.5905

          k = 0.5625-0.3125 1.1875 (  3758 PWs)   bands (ev):

   -16.8713 -16.8653 -16.8133 -16.7855 -16.7761 -16.7443 -16.7316 -16.7170
   -16.6618 -16.6559  -3.0834  -1.2213   2.5496   3.3633

          k = 0.4375-0.1875 1.0625 (  3761 PWs)   bands (ev):

   -16.8752 -16.8691 -16.8006 -16.7708 -16.7626 -16.7599 -16.7474 -16.7267
   -16.6577 -16.6516  -2.6580  -1.7092   2.3146   3.0024

          k =-0.3125-1.1875 0.3125 (  3754 PWs)   bands (ev):

   -16.8736 -16.8653 -16.8114 -16.7768 -16.7722 -16.7510 -16.7390 -16.7171
   -16.6614 -16.6534  -2.9108  -1.4343   2.4167   3.3207

          k =-0.4375 0.4375 0.4375 (  3768 PWs)   bands (ev):

   -16.8602 -16.8602 -16.8319 -16.7947 -16.7947 -16.7224 -16.7224 -16.7018
   -16.6679 -16.6679  -3.3772  -0.9232   3.8019   3.8019

          k = 0.4375-0.4375 1.3125 (  3749 PWs)   bands (ev):

   -16.8668 -16.8625 -16.8218 -16.7902 -16.7882 -16.7286 -16.7270 -16.7109
   -16.6648 -16.6608  -3.2114  -1.1206   2.9385   3.6618

     highest occupied level (ev):     4.5435

!    total energy              =    -318.46220090 Ry
     Harris-Foulkes estimate   =    -318.46220090 Ry
     estimated scf accuracy    <          2.9E-09 Ry

     The total energy is the sum of the following terms:

     one-electron contribution =    -183.10689538 Ry
     hartree contribution      =     105.68344229 Ry
     xc contribution           =     -85.77221594 Ry
     ewald contribution        =    -155.26653186 Ry

     convergence has been achieved in   7 iterations

     Writing output data file sn.alpha.13.6.save

     init_run     :      1.62s CPU      1.67s WALL (       1 calls)
     electrons    :     26.38s CPU     27.14s WALL (       1 calls)

     Called by init_run:
     wfcinit      :      1.17s CPU      1.20s WALL (       1 calls)
     potinit      :      0.07s CPU      0.07s WALL (       1 calls)

     Called by electrons:
     c_bands      :     21.08s CPU     21.52s WALL (       7 calls)
     sum_band     :      4.27s CPU      4.45s WALL (       7 calls)
     v_of_rho     :      0.44s CPU      0.46s WALL (       8 calls)
     newd         :      0.66s CPU      0.74s WALL (       8 calls)
     mix_rho      :      0.04s CPU      0.04s WALL (       7 calls)

     Called by c_bands:
     init_us_2    :      0.51s CPU      0.52s WALL (     900 calls)
     cegterg      :     20.17s CPU     20.60s WALL (     420 calls)

     Called by sum_band:
     sum_band:bec :      0.00s CPU      0.01s WALL (     420 calls)
     addusdens    :      0.71s CPU      0.84s WALL (       7 calls)

     Called by *egterg:
     h_psi        :     18.33s CPU     18.76s WALL (    1734 calls)
     s_psi        :      0.27s CPU      0.27s WALL (    1734 calls)
     g_psi        :      0.10s CPU      0.10s WALL (    1254 calls)
     cdiaghg      :      0.72s CPU      0.72s WALL (    1674 calls)

     Called by h_psi:
     h_psi:pot    :     18.20s CPU     18.63s WALL (    1734 calls)
     h_psi:calbec :      0.61s CPU      0.62s WALL (    1734 calls)
     vloc_psi     :     17.26s CPU     17.67s WALL (    1734 calls)
     add_vuspsi   :      0.32s CPU      0.33s WALL (    1734 calls)

     General routines
     calbec       :      0.76s CPU      0.77s WALL (    2154 calls)
     fft          :      0.20s CPU      0.22s WALL (     124 calls)
     ffts         :      0.01s CPU      0.01s WALL (      15 calls)
     fftw         :     16.12s CPU     16.50s WALL (   45318 calls)
     interpolate  :      0.04s CPU      0.04s WALL (      15 calls)
     davcio       :      0.00s CPU      0.00s WALL (      60 calls)

     Parallel routines
     fft_scatter  :      2.27s CPU      2.27s WALL (   45457 calls)

     PWSCF        :    28.16s CPU        30.13s WALL


   This run was terminated on:  15:34:38  11Nov2017            

=------------------------------------------------------------------------------=
   JOB DONE.
=------------------------------------------------------------------------------=
