
     Program PWSCF v.6.1 (svn rev. 13369) starts on 13Nov2017 at  9:58:25 

     This program is part of the open-source Quantum ESPRESSO suite
     for quantum simulation of materials; please cite
         "P. Giannozzi et al., J. Phys.:Condens. Matter 21 395502 (2009);
          URL http://www.quantum-espresso.org", 
     in publications or presentations arising from this work. More details at
     http://www.quantum-espresso.org/quote

     Parallel version (MPI), running on     4 processors
     R & G space division:  proc/nbgrp/npool/nimage =       4
     Waiting for input...
     Reading input from standard input

     Current dimensions of program PWSCF are:
     Max number of different atomic species (ntypx) = 10
     Max number of k-points (npk) =  40000
     Max angular momentum in pseudopotentials (lmaxx) =  3

     Subspace diagonalization in iterative solution of the eigenvalue problem:
     a serial algorithm will be used


     Parallelization info
     --------------------
     sticks:   dense  smooth     PW     G-vecs:    dense   smooth      PW
     Min        1125     447    187                15443     3904    1051
     Max        1126     448    188                15444     3905    1052
     Sum        4501    1789    749                61773    15617    4205



     bravais-lattice index     =            0
     lattice parameter (alat)  =      10.8000  a.u.
     unit-cell volume          =     327.3174 (a.u.)^3
     number of atoms/cell      =            2
     number of atomic types    =            1
     number of electrons       =        28.00
     number of Kohn-Sham states=           18
     kinetic-energy cutoff     =      50.0000  Ry
     charge density cutoff     =     500.0000  Ry
     convergence threshold     =      1.0E-08
     mixing beta               =       0.7000
     number of iterations used =            8  plain     mixing
     Exchange-correlation      =  SLA  PW   PBX  PBC ( 1  4  3  4 0 0)

     celldm(1)=  10.800000  celldm(2)=   0.000000  celldm(3)=   0.000000
     celldm(4)=   0.000000  celldm(5)=   0.000000  celldm(6)=   0.000000

     crystal axes: (cart. coord. in units of alat)
               a(1) = (   0.986837   0.000000   0.000000 )  
               a(2) = (   0.000000   0.986837   0.000000 )  
               a(3) = (   0.493419   0.493419   0.266813 )  

     reciprocal axes: (cart. coord. in units 2 pi/alat)
               b(1) = (  1.013339  0.000000 -1.873974 )  
               b(2) = (  0.000000  1.013339 -1.873974 )  
               b(3) = (  0.000000  0.000000  3.747943 )  


     PseudoPot. # 1 for Sn read from file:
     /home/s1333534/quantum_espresso/qe-6.1/pseudo/sn_pbe_v1.4.uspp.F.UPF
     MD5 check sum: 469debedee59599fedebd795477fea03
     Pseudo is Ultrasoft + core correction, Zval = 14.0
     Generated by new atomic code, or converted to UPF format
     Using radial grid of  891 points,  6 beta functions with: 
                l(1) =   0
                l(2) =   0
                l(3) =   1
                l(4) =   1
                l(5) =   2
                l(6) =   2
     Q(r) pseudized with  8 coefficients,  rinner =    1.350   1.350   1.350
                                                       1.350   1.350

     atomic species   valence    mass     pseudopotential
        Sn            14.00   118.71000     Sn( 1.00)

     No symmetry found



   Cartesian axes

     site n.     atom                  positions (alat units)
         1           Sn  tau(   1) = (   1.0725850   1.3160481   0.0533919  )
         2           Sn  tau(   2) = (   0.5198369   0.2763739   0.0177973  )

     number of k points=   800  Marzari-Vanderbilt smearing, width (Ry)=  0.0200

     Number of k-points >= 100: set verbosity='high' to print them.

     Dense  grid:    61773 G-vectors     FFT dimensions: (  75,  75,  60)

     Smooth grid:    15617 G-vectors     FFT dimensions: (  48,  48,  40)

     Estimated max dynamical RAM per process >     120.76MB

     Estimated total allocated dynamical RAM >     483.04MB

     Initial potential from superposition of free atoms

     starting charge   25.99991, renormalised to   28.00000
     Starting wfc are   18 randomized atomic wfcs

     total cpu time spent up to now is       15.4 secs

     per-process dynamical memory:   132.3 Mb

     Self-consistent Calculation

     iteration #  1     ecut=    50.00 Ry     beta=0.70
     Davidson diagonalization with overlap
     ethr =  1.00E-02,  avg # of iterations =  4.0

     total cpu time spent up to now is       75.8 secs

     total energy              =    -317.49663755 Ry
     Harris-Foulkes estimate   =    -319.40391866 Ry
     estimated scf accuracy    <       2.33744122 Ry

     iteration #  2     ecut=    50.00 Ry     beta=0.70
     Davidson diagonalization with overlap
     ethr =  8.35E-03,  avg # of iterations =  2.5

     total cpu time spent up to now is      127.2 secs

     total energy              =    -318.32175219 Ry
     Harris-Foulkes estimate   =    -318.60842941 Ry
     estimated scf accuracy    <       0.42204352 Ry

     iteration #  3     ecut=    50.00 Ry     beta=0.70
     Davidson diagonalization with overlap
     ethr =  1.51E-03,  avg # of iterations =  2.0

     total cpu time spent up to now is      177.2 secs

     total energy              =    -318.40913473 Ry
     Harris-Foulkes estimate   =    -318.41075006 Ry
     estimated scf accuracy    <       0.00275057 Ry

     iteration #  4     ecut=    50.00 Ry     beta=0.70
     Davidson diagonalization with overlap
     ethr =  9.82E-06,  avg # of iterations =  3.7

     total cpu time spent up to now is      234.8 secs

     total energy              =    -318.40972706 Ry
     Harris-Foulkes estimate   =    -318.40987287 Ry
     estimated scf accuracy    <       0.00029325 Ry

     iteration #  5     ecut=    50.00 Ry     beta=0.70
     Davidson diagonalization with overlap
     ethr =  1.05E-06,  avg # of iterations =  2.6

     total cpu time spent up to now is      279.3 secs

     total energy              =    -318.40977318 Ry
     Harris-Foulkes estimate   =    -318.40978283 Ry
     estimated scf accuracy    <       0.00001706 Ry

     iteration #  6     ecut=    50.00 Ry     beta=0.70
     Davidson diagonalization with overlap
     ethr =  6.09E-08,  avg # of iterations =  3.0

     total cpu time spent up to now is      334.7 secs

     total energy              =    -318.40977931 Ry
     Harris-Foulkes estimate   =    -318.40977973 Ry
     estimated scf accuracy    <       0.00000086 Ry

     iteration #  7     ecut=    50.00 Ry     beta=0.70
     Davidson diagonalization with overlap
     ethr =  3.06E-09,  avg # of iterations =  3.0

     total cpu time spent up to now is      387.3 secs

     total energy              =    -318.40977946 Ry
     Harris-Foulkes estimate   =    -318.40977958 Ry
     estimated scf accuracy    <       0.00000016 Ry

     iteration #  8     ecut=    50.00 Ry     beta=0.70
     Davidson diagonalization with overlap
     ethr =  5.88E-10,  avg # of iterations =  2.4

     total cpu time spent up to now is      438.7 secs

     End of self-consistent calculation

     Number of k-points >= 100: set verbosity='high' to print the bands.

     the Fermi energy is    12.5789 ev

!    total energy              =    -318.40977951 Ry
     Harris-Foulkes estimate   =    -318.40977951 Ry
     estimated scf accuracy    <          3.1E-09 Ry

     The total energy is the sum of the following terms:

     one-electron contribution =    -104.44670925 Ry
     hartree contribution      =      74.33941340 Ry
     xc contribution           =     -86.21465043 Ry
     ewald contribution        =    -202.08784393 Ry
     smearing contrib. (-TS)   =       0.00001069 Ry

     convergence has been achieved in   8 iterations

     Writing output data file sn.beta.10.80.save

     init_run     :     14.78s CPU     15.25s WALL (       1 calls)
     electrons    :    411.05s CPU    423.40s WALL (       1 calls)

     Called by init_run:
     wfcinit      :     13.80s CPU     14.24s WALL (       1 calls)
     potinit      :      0.26s CPU      0.27s WALL (       1 calls)

     Called by electrons:
     c_bands      :    336.96s CPU    347.20s WALL (       8 calls)
     sum_band     :     72.57s CPU     74.47s WALL (       8 calls)
     v_of_rho     :      0.77s CPU      0.80s WALL (       9 calls)
     newd         :      0.77s CPU      0.82s WALL (       9 calls)
     mix_rho      :      0.07s CPU      0.07s WALL (       8 calls)

     Called by c_bands:
     init_us_2    :      3.48s CPU      3.55s WALL (   13600 calls)
     cegterg      :    329.66s CPU    339.74s WALL (    6400 calls)

     Called by sum_band:
     sum_band:bec :      0.06s CPU      0.09s WALL (    6400 calls)
     addusdens    :      0.87s CPU      0.98s WALL (       8 calls)

     Called by *egterg:
     h_psi        :    303.97s CPU    313.76s WALL (   25681 calls)
     s_psi        :      2.27s CPU      2.29s WALL (   25681 calls)
     g_psi        :      0.82s CPU      0.85s WALL (   18481 calls)
     cdiaghg      :     16.09s CPU     16.34s WALL (   24881 calls)

     Called by h_psi:
     h_psi:pot    :    302.89s CPU    312.60s WALL (   25681 calls)
     h_psi:calbec :      5.81s CPU      5.95s WALL (   25681 calls)
     vloc_psi     :    294.11s CPU    303.56s WALL (   25681 calls)
     add_vuspsi   :      2.94s CPU      3.01s WALL (   25681 calls)

     General routines
     calbec       :      7.69s CPU      7.83s WALL (   32081 calls)
     fft          :      0.49s CPU      0.52s WALL (     140 calls)
     ffts         :      0.01s CPU      0.01s WALL (      17 calls)
     fftw         :    226.67s CPU    233.99s WALL (  803510 calls)
     interpolate  :      0.08s CPU      0.09s WALL (      17 calls)
     davcio       :      0.01s CPU      0.04s WALL (     800 calls)

     Parallel routines
     fft_scatter  :     55.18s CPU     57.32s WALL (  803667 calls)

     PWSCF        :  7m 6.88s CPU     7m33.12s WALL


   This run was terminated on:  10: 5:59  13Nov2017            

=------------------------------------------------------------------------------=
   JOB DONE.
=------------------------------------------------------------------------------=
