
     Program PWSCF v.6.1 (svn rev. 13369) starts on 12Nov2017 at 12:59:59 

     This program is part of the open-source Quantum ESPRESSO suite
     for quantum simulation of materials; please cite
         "P. Giannozzi et al., J. Phys.:Condens. Matter 21 395502 (2009);
          URL http://www.quantum-espresso.org", 
     in publications or presentations arising from this work. More details at
     http://www.quantum-espresso.org/quote

     Parallel version (MPI), running on     4 processors
     R & G space division:  proc/nbgrp/npool/nimage =       4
     Waiting for input...
     Reading input from standard input
     Message from routine read_cards :
     DEPRECATED: no units specified in ATOMIC_POSITIONS card
     Message from routine read_cards :
     ATOMIC_POSITIONS: units set to alat

     Current dimensions of program PWSCF are:
     Max number of different atomic species (ntypx) = 10
     Max number of k-points (npk) =  40000
     Max angular momentum in pseudopotentials (lmaxx) =  3

     Subspace diagonalization in iterative solution of the eigenvalue problem:
     a serial algorithm will be used


     Parallelization info
     --------------------
     sticks:   dense  smooth     PW     G-vecs:    dense   smooth      PW
     Min         561     283     87                17727     6273    1068
     Max         562     284     88                17730     6276    1071
     Sum        2245    1135    349                70913    25101    4279



     bravais-lattice index     =            2
     lattice parameter (alat)  =      12.5650  a.u.
     unit-cell volume          =     495.9381 (a.u.)^3
     number of atoms/cell      =            2
     number of atomic types    =            1
     number of electrons       =        28.00
     number of Kohn-Sham states=           14
     kinetic-energy cutoff     =      52.0000  Ry
     charge density cutoff     =     416.0000  Ry
     convergence threshold     =      1.0E-08
     mixing beta               =       0.7000
     number of iterations used =            8  plain     mixing
     Exchange-correlation      =  SLA  PW   PBX  PBC ( 1  4  3  4 0 0)

     celldm(1)=  12.565000  celldm(2)=   0.000000  celldm(3)=   0.000000
     celldm(4)=   0.000000  celldm(5)=   0.000000  celldm(6)=   0.000000

     crystal axes: (cart. coord. in units of alat)
               a(1) = (  -0.500000   0.000000   0.500000 )  
               a(2) = (   0.000000   0.500000   0.500000 )  
               a(3) = (  -0.500000   0.500000   0.000000 )  

     reciprocal axes: (cart. coord. in units 2 pi/alat)
               b(1) = ( -1.000000 -1.000000  1.000000 )  
               b(2) = (  1.000000  1.000000  1.000000 )  
               b(3) = ( -1.000000  1.000000 -1.000000 )  


     PseudoPot. # 1 for Sn read from file:
     /home/s1333534/quantum_espresso/qe-6.1/pseudo/sn_pbe_v1.4.uspp.F.UPF
     MD5 check sum: 469debedee59599fedebd795477fea03
     Pseudo is Ultrasoft + core correction, Zval = 14.0
     Generated by new atomic code, or converted to UPF format
     Using radial grid of  891 points,  6 beta functions with: 
                l(1) =   0
                l(2) =   0
                l(3) =   1
                l(4) =   1
                l(5) =   2
                l(6) =   2
     Q(r) pseudized with  8 coefficients,  rinner =    1.350   1.350   1.350
                                                       1.350   1.350

     atomic species   valence    mass     pseudopotential
        Sn            14.00   118.71000     Sn( 1.00)

     48 Sym. Ops., with inversion, found (24 have fractional translation)



   Cartesian axes

     site n.     atom                  positions (alat units)
         1           Sn  tau(   1) = (   0.0000000   0.0000000   0.0000000  )
         2           Sn  tau(   2) = (   0.2500000   0.2500000   0.2500000  )

     number of k points=    60
                       cart. coord. in units 2pi/alat
        k(    1) = (  -0.0625000   0.0625000   0.0625000), wk =   0.0078125
        k(    2) = (  -0.1875000   0.1875000  -0.0625000), wk =   0.0234375
        k(    3) = (  -0.3125000   0.3125000  -0.1875000), wk =   0.0234375
        k(    4) = (  -0.4375000   0.4375000  -0.3125000), wk =   0.0234375
        k(    5) = (   0.4375000  -0.4375000   0.5625000), wk =   0.0234375
        k(    6) = (   0.3125000  -0.3125000   0.4375000), wk =   0.0234375
        k(    7) = (   0.1875000  -0.1875000   0.3125000), wk =   0.0234375
        k(    8) = (   0.0625000  -0.0625000   0.1875000), wk =   0.0234375
        k(    9) = (  -0.0625000   0.3125000   0.0625000), wk =   0.0234375
        k(   10) = (  -0.1875000   0.4375000  -0.0625000), wk =   0.0468750
        k(   11) = (  -0.3125000   0.5625000  -0.1875000), wk =   0.0468750
        k(   12) = (   0.5625000  -0.3125000   0.6875000), wk =   0.0468750
        k(   13) = (   0.4375000  -0.1875000   0.5625000), wk =   0.0468750
        k(   14) = (   0.3125000  -0.0625000   0.4375000), wk =   0.0468750
        k(   15) = (   0.1875000   0.0625000   0.3125000), wk =   0.0468750
        k(   16) = (  -0.0625000   0.5625000   0.0625000), wk =   0.0234375
        k(   17) = (  -0.1875000   0.6875000  -0.0625000), wk =   0.0468750
        k(   18) = (   0.6875000  -0.1875000   0.8125000), wk =   0.0468750
        k(   19) = (   0.5625000  -0.0625000   0.6875000), wk =   0.0468750
        k(   20) = (   0.4375000   0.0625000   0.5625000), wk =   0.0468750
        k(   21) = (   0.3125000   0.1875000   0.4375000), wk =   0.0468750
        k(   22) = (  -0.0625000   0.8125000   0.0625000), wk =   0.0234375
        k(   23) = (   0.8125000  -0.0625000   0.9375000), wk =   0.0468750
        k(   24) = (   0.6875000   0.0625000   0.8125000), wk =   0.0468750
        k(   25) = (   0.5625000   0.1875000   0.6875000), wk =   0.0468750
        k(   26) = (   0.4375000   0.3125000   0.5625000), wk =   0.0468750
        k(   27) = (  -0.0625000  -0.9375000   0.0625000), wk =   0.0234375
        k(   28) = (  -0.1875000  -0.8125000  -0.0625000), wk =   0.0468750
        k(   29) = (  -0.3125000  -0.6875000  -0.1875000), wk =   0.0468750
        k(   30) = (  -0.0625000  -0.6875000   0.0625000), wk =   0.0234375
        k(   31) = (  -0.1875000  -0.5625000  -0.0625000), wk =   0.0468750
        k(   32) = (  -0.0625000  -0.4375000   0.0625000), wk =   0.0234375
        k(   33) = (  -0.1875000   0.1875000   0.1875000), wk =   0.0078125
        k(   34) = (  -0.3125000   0.3125000   0.0625000), wk =   0.0234375
        k(   35) = (  -0.4375000   0.4375000  -0.0625000), wk =   0.0234375
        k(   36) = (   0.4375000  -0.4375000   0.8125000), wk =   0.0234375
        k(   37) = (   0.3125000  -0.3125000   0.6875000), wk =   0.0234375
        k(   38) = (   0.1875000  -0.1875000   0.5625000), wk =   0.0234375
        k(   39) = (  -0.1875000   0.4375000   0.1875000), wk =   0.0234375
        k(   40) = (  -0.3125000   0.5625000   0.0625000), wk =   0.0468750
        k(   41) = (   0.5625000  -0.3125000   0.9375000), wk =   0.0468750
        k(   42) = (   0.4375000  -0.1875000   0.8125000), wk =   0.0468750
        k(   43) = (   0.3125000  -0.0625000   0.6875000), wk =   0.0468750
        k(   44) = (  -0.1875000   0.6875000   0.1875000), wk =   0.0234375
        k(   45) = (   0.6875000  -0.1875000   1.0625000), wk =   0.0468750
        k(   46) = (   0.5625000  -0.0625000   0.9375000), wk =   0.0468750
        k(   47) = (   0.4375000   0.0625000   0.8125000), wk =   0.0468750
        k(   48) = (  -0.1875000  -1.0625000   0.1875000), wk =   0.0234375
        k(   49) = (  -0.3125000  -0.9375000   0.0625000), wk =   0.0468750
        k(   50) = (  -0.1875000  -0.8125000   0.1875000), wk =   0.0234375
        k(   51) = (  -0.3125000   0.3125000   0.3125000), wk =   0.0078125
        k(   52) = (  -0.4375000   0.4375000   0.1875000), wk =   0.0234375
        k(   53) = (   0.4375000  -0.4375000   1.0625000), wk =   0.0234375
        k(   54) = (   0.3125000  -0.3125000   0.9375000), wk =   0.0234375
        k(   55) = (  -0.3125000   0.5625000   0.3125000), wk =   0.0234375
        k(   56) = (   0.5625000  -0.3125000   1.1875000), wk =   0.0468750
        k(   57) = (   0.4375000  -0.1875000   1.0625000), wk =   0.0468750
        k(   58) = (  -0.3125000  -1.1875000   0.3125000), wk =   0.0234375
        k(   59) = (  -0.4375000   0.4375000   0.4375000), wk =   0.0078125
        k(   60) = (   0.4375000  -0.4375000   1.3125000), wk =   0.0234375

     Dense  grid:    70913 G-vectors     FFT dimensions: (  60,  60,  60)

     Smooth grid:    25101 G-vectors     FFT dimensions: (  45,  45,  45)

     Estimated max dynamical RAM per process >      22.83MB

     Estimated total allocated dynamical RAM >      91.31MB

     Initial potential from superposition of free atoms

     starting charge   25.99991, renormalised to   28.00000
     Starting wfc are   18 randomized atomic wfcs

     total cpu time spent up to now is        1.7 secs

     per-process dynamical memory:    27.0 Mb

     Self-consistent Calculation

     iteration #  1     ecut=    52.00 Ry     beta=0.70
     Davidson diagonalization with overlap
     ethr =  1.00E-02,  avg # of iterations =  2.6

     total cpu time spent up to now is        5.1 secs

     total energy              =    -317.48878796 Ry
     Harris-Foulkes estimate   =    -319.55160068 Ry
     estimated scf accuracy    <       2.51346105 Ry

     iteration #  2     ecut=    52.00 Ry     beta=0.70
     Davidson diagonalization with overlap
     ethr =  8.98E-03,  avg # of iterations =  3.0

     total cpu time spent up to now is        8.8 secs

     total energy              =    -318.39694985 Ry
     Harris-Foulkes estimate   =    -318.71501029 Ry
     estimated scf accuracy    <       0.47347929 Ry

     iteration #  3     ecut=    52.00 Ry     beta=0.70
     Davidson diagonalization with overlap
     ethr =  1.69E-03,  avg # of iterations =  2.0

     total cpu time spent up to now is       12.2 secs

     total energy              =    -318.49199624 Ry
     Harris-Foulkes estimate   =    -318.49355995 Ry
     estimated scf accuracy    <       0.00286753 Ry

     iteration #  4     ecut=    52.00 Ry     beta=0.70
     Davidson diagonalization with overlap
     ethr =  1.02E-05,  avg # of iterations =  3.0

     total cpu time spent up to now is       15.6 secs

     total energy              =    -318.49287873 Ry
     Harris-Foulkes estimate   =    -318.49299646 Ry
     estimated scf accuracy    <       0.00017440 Ry

     iteration #  5     ecut=    52.00 Ry     beta=0.70
     Davidson diagonalization with overlap
     ethr =  6.23E-07,  avg # of iterations =  3.0

     total cpu time spent up to now is       19.2 secs

     total energy              =    -318.49293236 Ry
     Harris-Foulkes estimate   =    -318.49293316 Ry
     estimated scf accuracy    <       0.00000159 Ry

     iteration #  6     ecut=    52.00 Ry     beta=0.70
     Davidson diagonalization with overlap
     ethr =  5.69E-09,  avg # of iterations =  3.9

     total cpu time spent up to now is       22.9 secs

     total energy              =    -318.49293313 Ry
     Harris-Foulkes estimate   =    -318.49293317 Ry
     estimated scf accuracy    <       0.00000007 Ry

     iteration #  7     ecut=    52.00 Ry     beta=0.70
     Davidson diagonalization with overlap
     ethr =  2.37E-10,  avg # of iterations =  3.2

     total cpu time spent up to now is       26.7 secs

     End of self-consistent calculation

          k =-0.0625 0.0625 0.0625 (  3134 PWs)   bands (ev):

   -14.6186 -14.6186 -14.6152 -14.5637 -14.5637 -14.3228 -14.3228 -14.3134
   -14.3015 -14.3015  -3.1483   5.4056   6.9676   6.9676

          k =-0.1875 0.1875-0.0625 (  3141 PWs)   bands (ev):

   -14.6305 -14.6256 -14.6120 -14.5527 -14.5458 -14.3457 -14.3368 -14.3112
   -14.2961 -14.2836  -2.9631   4.2346   6.2874   6.8301

          k =-0.3125 0.3125-0.1875 (  3141 PWs)   bands (ev):

   -14.6418 -14.6389 -14.6009 -14.5348 -14.5252 -14.3643 -14.3526 -14.3265
   -14.2790 -14.2715  -2.5227   2.6666   5.7942   6.4076

          k =-0.4375 0.4375-0.3125 (  3136 PWs)   bands (ev):

   -14.6475 -14.6470 -14.5904 -14.5217 -14.5141 -14.3715 -14.3625 -14.3418
   -14.2681 -14.2666  -1.9417   1.3653   5.5483   6.0488

          k = 0.4375-0.4375 0.5625 (  3146 PWs)   bands (ev):

   -14.6509 -14.6469 -14.5877 -14.5152 -14.5147 -14.3708 -14.3684 -14.3454
   -14.2674 -14.2638  -1.6843   0.9215   5.5480   5.8753

          k = 0.3125-0.3125 0.4375 (  3137 PWs)   bands (ev):

   -14.6481 -14.6427 -14.5943 -14.5248 -14.5160 -14.3738 -14.3585 -14.3348
   -14.2733 -14.2659  -2.1337   1.7407   5.7774   5.9249

          k = 0.1875-0.1875 0.3125 (  3134 PWs)   bands (ev):

   -14.6388 -14.6339 -14.6063 -14.5408 -14.5299 -14.3639 -14.3431 -14.3203
   -14.2843 -14.2751  -2.6937   3.1824   6.1943   6.1950

          k = 0.0625-0.0625 0.1875 (  3146 PWs)   bands (ev):

   -14.6246 -14.6219 -14.6159 -14.5596 -14.5511 -14.3440 -14.3233 -14.3102
   -14.3010 -14.2900  -3.0550   4.7481   6.6222   6.6551

          k =-0.0625 0.3125 0.0625 (  3145 PWs)   bands (ev):

   -14.6312 -14.6278 -14.6174 -14.5507 -14.5304 -14.3708 -14.3289 -14.3031
   -14.2955 -14.2833  -2.8691   3.9454   6.1520   6.1673

          k =-0.1875 0.4375-0.0625 (  3144 PWs)   bands (ev):

   -14.6442 -14.6393 -14.6047 -14.5345 -14.5067 -14.3960 -14.3456 -14.3137
   -14.2806 -14.2702  -2.5085   2.8388   5.3807   5.9293

          k =-0.3125 0.5625-0.1875 (  3130 PWs)   bands (ev):

   -14.6581 -14.6478 -14.5824 -14.5164 -14.4925 -14.4066 -14.3645 -14.3393
   -14.2672 -14.2553  -1.9470   1.5984   4.8732   5.6293

          k = 0.5625-0.3125 0.6875 (  3139 PWs)   bands (ev):

   -14.6649 -14.6523 -14.5674 -14.5029 -14.4955 -14.3974 -14.3817 -14.3579
   -14.2607 -14.2486  -1.4902   0.8376   4.6118   5.5625

          k = 0.4375-0.1875 0.5625 (  3136 PWs)   bands (ev):

   -14.6611 -14.6522 -14.5705 -14.5144 -14.4941 -14.3965 -14.3689 -14.3585
   -14.2605 -14.2531  -1.7586   1.2638   4.6154   5.7695

          k = 0.3125-0.0625 0.4375 (  3137 PWs)   bands (ev):

   -14.6488 -14.6465 -14.5898 -14.5307 -14.5062 -14.3891 -14.3545 -14.3324
   -14.2714 -14.2641  -2.3429   2.4073   4.9718   6.1571

          k = 0.1875 0.0625 0.3125 (  3138 PWs)   bands (ev):

   -14.6371 -14.6316 -14.6087 -14.5457 -14.5296 -14.3675 -14.3390 -14.3119
   -14.2904 -14.2762  -2.7802   3.5565   5.8263   6.4499

          k =-0.0625 0.5625 0.0625 (  3134 PWs)   bands (ev):

   -14.6460 -14.6434 -14.6087 -14.5195 -14.4760 -14.4333 -14.3576 -14.3031
   -14.2743 -14.2704  -2.2274   2.3014   5.2631   5.3514

          k =-0.1875 0.6875-0.0625 (  3144 PWs)   bands (ev):

   -14.6584 -14.6530 -14.5847 -14.4987 -14.4587 -14.4516 -14.3791 -14.3298
   -14.2609 -14.2552  -1.7136   1.3934   4.6988   5.0899

          k = 0.6875-0.1875 0.8125 (  3142 PWs)   bands (ev):

   -14.6725 -14.6578 -14.5546 -14.4785 -14.4617 -14.4458 -14.4024 -14.3613
   -14.2541 -14.2395  -1.1405   0.5939   4.1222   5.0591

          k = 0.5625-0.0625 0.6875 (  3145 PWs)   bands (ev):

   -14.6750 -14.6590 -14.5463 -14.4835 -14.4651 -14.4292 -14.4100 -14.3708
   -14.2523 -14.2374  -1.2046   0.6754   3.9093   5.3120

          k = 0.4375 0.0625 0.5625 (  3133 PWs)   bands (ev):

   -14.6641 -14.6550 -14.5636 -14.5138 -14.4843 -14.4074 -14.3702 -14.3642
   -14.2567 -14.2506  -1.7870   1.4314   4.2892   5.7459

          k = 0.3125 0.1875 0.4375 (  3137 PWs)   bands (ev):

   -14.6491 -14.6434 -14.5927 -14.5284 -14.5111 -14.3826 -14.3553 -14.3325
   -14.2737 -14.2645  -2.2714   2.1273   5.3379   6.0636

          k =-0.0625 0.8125 0.0625 (  3146 PWs)   bands (ev):

   -14.6580 -14.6558 -14.5782 -14.4982 -14.4754 -14.4158 -14.4008 -14.3353
   -14.2566 -14.2541  -1.2495   0.7390   4.7314   4.8569

          k = 0.8125-0.0625 0.9375 (  3150 PWs)   bands (ev):

   -14.6663 -14.6608 -14.5465 -14.5164 -14.4513 -14.4260 -14.3973 -14.3679
   -14.2501 -14.2450  -0.6304   0.0210   4.3892   4.7084

          k = 0.6875 0.0625 0.8125 (  3153 PWs)   bands (ev):

   -14.6757 -14.6605 -14.5423 -14.4760 -14.4570 -14.4344 -14.4236 -14.3723
   -14.2506 -14.2359  -0.7621   0.1854   3.9465   4.9468

          k = 0.5625 0.1875 0.6875 (  3143 PWs)   bands (ev):

   -14.6715 -14.6564 -14.5546 -14.4914 -14.4801 -14.4152 -14.3971 -14.3656
   -14.2556 -14.2413  -1.3065   0.7179   4.1694   5.3957

          k = 0.4375 0.3125 0.5625 (  3139 PWs)   bands (ev):

   -14.6561 -14.6485 -14.5805 -14.5148 -14.5065 -14.3817 -14.3685 -14.3502
   -14.2654 -14.2581  -1.7162   1.0555   5.1172   5.8099

          k =-0.0625-0.9375 0.0625 (  3155 PWs)   bands (ev):

   -14.6609 -14.6588 -14.5556 -14.5281 -14.4507 -14.4255 -14.3867 -14.3590
   -14.2524 -14.2502  -0.6488   0.0189   4.6228   4.7553

          k =-0.1875-0.8125-0.0625 (  3150 PWs)   bands (ev):

   -14.6635 -14.6582 -14.5675 -14.4886 -14.4759 -14.4239 -14.4017 -14.3469
   -14.2540 -14.2485  -1.2024   0.6903   4.4936   4.8364

          k =-0.3125-0.6875-0.1875 (  3140 PWs)   bands (ev):

   -14.6665 -14.6532 -14.5695 -14.4992 -14.4724 -14.4316 -14.3814 -14.3489
   -14.2601 -14.2465  -1.5619   1.0854   4.4478   5.2861

          k =-0.0625-0.6875 0.0625 (  3129 PWs)   bands (ev):

   -14.6529 -14.6502 -14.5961 -14.4985 -14.4662 -14.4459 -14.3778 -14.3162
   -14.2639 -14.2611  -1.7781   1.5038   4.9465   5.0575

          k =-0.1875-0.5625-0.0625 (  3136 PWs)   bands (ev):

   -14.6515 -14.6464 -14.5970 -14.5187 -14.4804 -14.4265 -14.3598 -14.3185
   -14.2700 -14.2632  -2.1513   2.1134   4.9981   5.4606

          k =-0.0625-0.4375 0.0625 (  3151 PWs)   bands (ev):

   -14.6386 -14.6354 -14.6159 -14.5373 -14.5049 -14.4012 -14.3408 -14.2987
   -14.2858 -14.2786  -2.5924   3.1201   5.6715   5.7281

          k =-0.1875 0.1875 0.1875 (  3128 PWs)   bands (ev):

   -14.6312 -14.6312 -14.6091 -14.5447 -14.5447 -14.3437 -14.3437 -14.3206
   -14.2844 -14.2844  -2.8728   3.7845   6.5705   6.5705

          k =-0.3125 0.3125 0.0625 (  3140 PWs)   bands (ev):

   -14.6426 -14.6389 -14.5992 -14.5389 -14.5225 -14.3687 -14.3521 -14.3217
   -14.2820 -14.2696  -2.6038   3.0046   5.3876   6.5389

          k =-0.4375 0.4375-0.0625 (  3126 PWs)   bands (ev):

   -14.6559 -14.6513 -14.5754 -14.5250 -14.4986 -14.3898 -14.3628 -14.3515
   -14.2605 -14.2601  -2.0999   1.9239   4.5898   6.1203

          k = 0.4375-0.4375 0.8125 (  3146 PWs)   bands (ev):

   -14.6668 -14.6540 -14.5620 -14.5054 -14.4902 -14.3945 -14.3878 -14.3642
   -14.2579 -14.2473  -1.5353   0.9607   4.3634   5.6989

          k = 0.3125-0.3125 0.6875 (  3138 PWs)   bands (ev):

   -14.6664 -14.6511 -14.5699 -14.5000 -14.4870 -14.4136 -14.3812 -14.3513
   -14.2622 -14.2465  -1.5210   0.9379   4.5423   5.4620

          k = 0.1875-0.1875 0.5625 (  3148 PWs)   bands (ev):

   -14.6559 -14.6448 -14.5927 -14.5177 -14.4861 -14.4188 -14.3619 -14.3247
   -14.2719 -14.2583  -2.0815   1.9111   5.0284   5.4712

          k =-0.1875 0.4375 0.1875 (  3139 PWs)   bands (ev):

   -14.6472 -14.6383 -14.6014 -14.5320 -14.5097 -14.3903 -14.3488 -14.3199
   -14.2801 -14.2669  -2.4284   2.5485   5.5851   5.8111

          k =-0.3125 0.5625 0.0625 (  3132 PWs)   bands (ev):

   -14.6570 -14.6522 -14.5798 -14.5172 -14.4847 -14.4161 -14.3634 -14.3410
   -14.2620 -14.2573  -2.0023   1.8008   4.6287   5.6321

          k = 0.5625-0.3125 0.9375 (  3139 PWs)   bands (ev):

   -14.6702 -14.6596 -14.5514 -14.4968 -14.4654 -14.4326 -14.3896 -14.3681
   -14.2521 -14.2428  -1.4148   0.9441   4.0962   5.2431

          k = 0.4375-0.1875 0.8125 (  3144 PWs)   bands (ev):

   -14.6738 -14.6607 -14.5451 -14.4828 -14.4618 -14.4394 -14.4036 -14.3715
   -14.2511 -14.2384  -1.1128   0.5508   4.0583   5.0288

          k = 0.3125-0.0625 0.6875 (  3136 PWs)   bands (ev):

   -14.6641 -14.6577 -14.5672 -14.4988 -14.4608 -14.4444 -14.3814 -14.3503
   -14.2551 -14.2491  -1.5893   1.1951   4.3798   5.1489

          k =-0.1875 0.6875 0.1875 (  3140 PWs)   bands (ev):

   -14.6632 -14.6509 -14.5799 -14.4988 -14.4623 -14.4459 -14.3801 -14.3357
   -14.2630 -14.2497  -1.6603   1.2760   4.5810   5.2014

          k = 0.6875-0.1875 1.0625 (  3140 PWs)   bands (ev):

   -14.6689 -14.6626 -14.5506 -14.4773 -14.4732 -14.4349 -14.4036 -14.3644
   -14.2492 -14.2429  -1.1148   0.5958   4.2330   4.7774

          k = 0.5625-0.0625 0.9375 (  3143 PWs)   bands (ev):

   -14.6743 -14.6688 -14.5182 -14.4839 -14.4563 -14.4317 -14.4218 -14.3927
   -14.2422 -14.2370  -0.5829   0.0235   4.0603   4.4574

          k = 0.4375 0.0625 0.8125 (  3136 PWs)   bands (ev):

   -14.6734 -14.6648 -14.5359 -14.4772 -14.4596 -14.4431 -14.4097 -14.3784
   -14.2465 -14.2383  -0.9998   0.4664   4.0244   4.7797

          k =-0.1875-1.0625 0.1875 (  3156 PWs)   bands (ev):

   -14.6720 -14.6588 -14.5480 -14.4985 -14.4531 -14.4252 -14.4140 -14.3670
   -14.2523 -14.2394  -0.6765   0.0794   4.1133   4.9206

          k =-0.3125-0.9375 0.0625 (  3147 PWs)   bands (ev):

   -14.6714 -14.6654 -14.5316 -14.4987 -14.4533 -14.4276 -14.4121 -14.3818
   -14.2457 -14.2398  -0.6031   0.0229   4.1781   4.5653

          k =-0.1875-0.8125 0.1875 (  3140 PWs)   bands (ev):

   -14.6690 -14.6559 -14.5637 -14.4768 -14.4764 -14.4339 -14.4019 -14.3512
   -14.2560 -14.2429  -1.1776   0.6516   4.2711   5.0153

          k =-0.3125 0.3125 0.3125 (  3143 PWs)   bands (ev):

   -14.6415 -14.6415 -14.6002 -14.5273 -14.5273 -14.3590 -14.3590 -14.3312
   -14.2738 -14.2738  -2.3637   2.2053   6.1850   6.1850

          k =-0.4375 0.4375 0.1875 (  3129 PWs)   bands (ev):

   -14.6524 -14.6497 -14.5815 -14.5237 -14.5056 -14.3819 -14.3614 -14.3482
   -14.2637 -14.2627  -2.0441   1.6843   4.9713   6.0979

          k = 0.4375-0.4375 1.0625 (  3139 PWs)   bands (ev):

   -14.6708 -14.6563 -14.5537 -14.5018 -14.4778 -14.4073 -14.3960 -14.3677
   -14.2549 -14.2428  -1.5160   1.0491   4.0389   5.6554

          k = 0.3125-0.3125 0.9375 (  3153 PWs)   bands (ev):

   -14.6770 -14.6585 -14.5468 -14.4620 -14.4610 -14.4472 -14.4196 -14.3692
   -14.2527 -14.2350  -0.9785   0.4156   3.8538   5.2336

          k =-0.3125 0.5625 0.3125 (  3137 PWs)   bands (ev):

   -14.6573 -14.6461 -14.5838 -14.5154 -14.5023 -14.3930 -14.3661 -14.3415
   -14.2688 -14.2563  -1.8453   1.3139   5.1298   5.6732

          k = 0.5625-0.3125 1.1875 (  3144 PWs)   bands (ev):

   -14.6687 -14.6562 -14.5585 -14.4994 -14.4790 -14.4179 -14.3858 -14.3632
   -14.2562 -14.2444  -1.4354   0.8819   4.3028   5.3548

          k = 0.4375-0.1875 1.0625 (  3144 PWs)   bands (ev):

   -14.6761 -14.6635 -14.5344 -14.4692 -14.4568 -14.4454 -14.4198 -14.3792
   -14.2476 -14.2356  -0.8756   0.3217   3.9187   4.8579

          k =-0.3125-1.1875 0.3125 (  3146 PWs)   bands (ev):

   -14.6733 -14.6559 -14.5561 -14.4806 -14.4725 -14.4327 -14.4008 -14.3617
   -14.2561 -14.2390  -1.2030   0.6231   4.0964   5.3115

          k =-0.4375 0.4375 0.4375 (  3154 PWs)   bands (ev):

   -14.6459 -14.6459 -14.5945 -14.5185 -14.5185 -14.3659 -14.3659 -14.3396
   -14.2690 -14.2690  -1.8120   1.0893   5.9717   5.9717

          k = 0.4375-0.4375 1.3125 (  3140 PWs)   bands (ev):

   -14.6592 -14.6502 -14.5748 -14.5100 -14.5048 -14.3792 -14.3778 -14.3559
   -14.2629 -14.2550  -1.5880   0.8877   4.9083   5.7776

     highest occupied level (ev):     6.9676

!    total energy              =    -318.49293316 Ry
     Harris-Foulkes estimate   =    -318.49293316 Ry
     estimated scf accuracy    <          2.5E-09 Ry

     The total energy is the sum of the following terms:

     one-electron contribution =    -161.99763237 Ry
     hartree contribution      =      97.52436844 Ry
     xc contribution           =     -85.96357427 Ry
     ewald contribution        =    -168.05609497 Ry

     convergence has been achieved in   7 iterations


     Computing stress (Cartesian axis) and pressure

          total   stress  (Ry/bohr**3)                   (kbar)     P=  -15.00
  -0.00010194  -0.00000000  -0.00000000        -15.00     -0.00     -0.00
  -0.00000000  -0.00010194   0.00000000         -0.00    -15.00      0.00
  -0.00000000   0.00000000  -0.00010194         -0.00      0.00    -15.00


     Writing output data file sn.alpha.52.save

     init_run     :      1.58s CPU      1.63s WALL (       1 calls)
     electrons    :     24.31s CPU     25.00s WALL (       1 calls)
     stress       :      1.05s CPU      1.07s WALL (       1 calls)

     Called by init_run:
     wfcinit      :      1.08s CPU      1.11s WALL (       1 calls)
     potinit      :      0.06s CPU      0.07s WALL (       1 calls)

     Called by electrons:
     c_bands      :     19.74s CPU     20.16s WALL (       7 calls)
     sum_band     :      3.69s CPU      3.85s WALL (       7 calls)
     v_of_rho     :      0.37s CPU      0.38s WALL (       8 calls)
     newd         :      0.55s CPU      0.63s WALL (       8 calls)
     mix_rho      :      0.03s CPU      0.03s WALL (       7 calls)

     Called by c_bands:
     init_us_2    :      0.43s CPU      0.43s WALL (     960 calls)
     cegterg      :     18.97s CPU     19.38s WALL (     420 calls)

     Called by sum_band:
     sum_band:bec :      0.00s CPU      0.00s WALL (     420 calls)
     addusdens    :      0.57s CPU      0.67s WALL (       7 calls)

     Called by *egterg:
     h_psi        :     17.37s CPU     17.78s WALL (    1725 calls)
     s_psi        :      0.25s CPU      0.26s WALL (    1725 calls)
     g_psi        :      0.08s CPU      0.08s WALL (    1245 calls)
     cdiaghg      :      0.75s CPU      0.75s WALL (    1665 calls)

     Called by h_psi:
     h_psi:pot    :     17.22s CPU     17.63s WALL (    1725 calls)
     h_psi:calbec :      0.54s CPU      0.55s WALL (    1725 calls)
     vloc_psi     :     16.33s CPU     16.71s WALL (    1725 calls)
     add_vuspsi   :      0.35s CPU      0.36s WALL (    1725 calls)

     General routines
     calbec       :      0.68s CPU      0.70s WALL (    2205 calls)
     fft          :      0.20s CPU      0.20s WALL (     138 calls)
     ffts         :      0.01s CPU      0.01s WALL (      15 calls)
     fftw         :     15.94s CPU     16.35s WALL (   45608 calls)
     interpolate  :      0.04s CPU      0.04s WALL (      15 calls)
     davcio       :      0.00s CPU      0.00s WALL (      60 calls)

     Parallel routines
     fft_scatter  :      2.14s CPU      2.10s WALL (   45761 calls)

     PWSCF        :    27.10s CPU        28.97s WALL


   This run was terminated on:  13: 0:28  12Nov2017            

=------------------------------------------------------------------------------=
   JOB DONE.
=------------------------------------------------------------------------------=
