
     Program PWSCF v.6.1 (svn rev. 13369) starts on 11Nov2017 at 16:43:39 

     This program is part of the open-source Quantum ESPRESSO suite
     for quantum simulation of materials; please cite
         "P. Giannozzi et al., J. Phys.:Condens. Matter 21 395502 (2009);
          URL http://www.quantum-espresso.org", 
     in publications or presentations arising from this work. More details at
     http://www.quantum-espresso.org/quote

     Parallel version (MPI), running on     4 processors
     R & G space division:  proc/nbgrp/npool/nimage =       4
     Waiting for input...
     Reading input from standard input
     Message from routine read_cards :
     DEPRECATED: no units specified in ATOMIC_POSITIONS card
     Message from routine read_cards :
     ATOMIC_POSITIONS: units set to alat

     Current dimensions of program PWSCF are:
     Max number of different atomic species (ntypx) = 10
     Max number of k-points (npk) =  40000
     Max angular momentum in pseudopotentials (lmaxx) =  3

     Subspace diagonalization in iterative solution of the eigenvalue problem:
     a serial algorithm will be used


     Parallelization info
     --------------------
     sticks:   dense  smooth     PW     G-vecs:    dense   smooth      PW
     Min         545     268     84                16774     5896    1003
     Max         547     269     85                16775     5899    1005
     Sum        2185    1075    337                67097    23589    4015



     bravais-lattice index     =            2
     lattice parameter (alat)  =      12.5800  a.u.
     unit-cell volume          =     497.7164 (a.u.)^3
     number of atoms/cell      =            2
     number of atomic types    =            1
     number of electrons       =        28.00
     number of Kohn-Sham states=           14
     kinetic-energy cutoff     =      50.0000  Ry
     charge density cutoff     =     400.0000  Ry
     convergence threshold     =      1.0E-08
     mixing beta               =       0.7000
     number of iterations used =            8  plain     mixing
     Exchange-correlation      =  SLA  PW   PBX  PBC ( 1  4  3  4 0 0)

     celldm(1)=  12.580000  celldm(2)=   0.000000  celldm(3)=   0.000000
     celldm(4)=   0.000000  celldm(5)=   0.000000  celldm(6)=   0.000000

     crystal axes: (cart. coord. in units of alat)
               a(1) = (  -0.500000   0.000000   0.500000 )  
               a(2) = (   0.000000   0.500000   0.500000 )  
               a(3) = (  -0.500000   0.500000   0.000000 )  

     reciprocal axes: (cart. coord. in units 2 pi/alat)
               b(1) = ( -1.000000 -1.000000  1.000000 )  
               b(2) = (  1.000000  1.000000  1.000000 )  
               b(3) = ( -1.000000  1.000000 -1.000000 )  


     PseudoPot. # 1 for Sn read from file:
     /home/s1333534/quantum_espresso/qe-6.1/pseudo/sn_pbe_v1.4.uspp.F.UPF
     MD5 check sum: 469debedee59599fedebd795477fea03
     Pseudo is Ultrasoft + core correction, Zval = 14.0
     Generated by new atomic code, or converted to UPF format
     Using radial grid of  891 points,  6 beta functions with: 
                l(1) =   0
                l(2) =   0
                l(3) =   1
                l(4) =   1
                l(5) =   2
                l(6) =   2
     Q(r) pseudized with  8 coefficients,  rinner =    1.350   1.350   1.350
                                                       1.350   1.350

     atomic species   valence    mass     pseudopotential
        Sn            14.00   118.71000     Sn( 1.00)

     48 Sym. Ops., with inversion, found (24 have fractional translation)



   Cartesian axes

     site n.     atom                  positions (alat units)
         1           Sn  tau(   1) = (   0.0000000   0.0000000   0.0000000  )
         2           Sn  tau(   2) = (   0.2500000   0.2500000   0.2500000  )

     number of k points=   182

     Number of k-points >= 100: set verbosity='high' to print them.

     Dense  grid:    67097 G-vectors     FFT dimensions: (  60,  60,  60)

     Smooth grid:    23589 G-vectors     FFT dimensions: (  45,  45,  45)

     Estimated max dynamical RAM per process >      41.17MB

     Estimated total allocated dynamical RAM >     164.69MB

     Initial potential from superposition of free atoms

     starting charge   25.99991, renormalised to   28.00000
     Starting wfc are   18 randomized atomic wfcs

     total cpu time spent up to now is        3.9 secs

     per-process dynamical memory:    46.1 Mb

     Self-consistent Calculation

     iteration #  1     ecut=    50.00 Ry     beta=0.70
     Davidson diagonalization with overlap
     ethr =  1.00E-02,  avg # of iterations =  2.7

     total cpu time spent up to now is       13.4 secs

     total energy              =    -317.48474762 Ry
     Harris-Foulkes estimate   =    -319.54928579 Ry
     estimated scf accuracy    <       2.51536443 Ry

     iteration #  2     ecut=    50.00 Ry     beta=0.70
     Davidson diagonalization with overlap
     ethr =  8.98E-03,  avg # of iterations =  3.0

     total cpu time spent up to now is       23.9 secs

     total energy              =    -318.39373216 Ry
     Harris-Foulkes estimate   =    -318.71202134 Ry
     estimated scf accuracy    <       0.47384313 Ry

     iteration #  3     ecut=    50.00 Ry     beta=0.70
     Davidson diagonalization with overlap
     ethr =  1.69E-03,  avg # of iterations =  2.0

     total cpu time spent up to now is       33.1 secs

     total energy              =    -318.48886472 Ry
     Harris-Foulkes estimate   =    -318.49043622 Ry
     estimated scf accuracy    <       0.00288038 Ry

     iteration #  4     ecut=    50.00 Ry     beta=0.70
     Davidson diagonalization with overlap
     ethr =  1.03E-05,  avg # of iterations =  2.9

     total cpu time spent up to now is       42.9 secs

     total energy              =    -318.48975397 Ry
     Harris-Foulkes estimate   =    -318.48987058 Ry
     estimated scf accuracy    <       0.00017279 Ry

     iteration #  5     ecut=    50.00 Ry     beta=0.70
     Davidson diagonalization with overlap
     ethr =  6.17E-07,  avg # of iterations =  3.0

     total cpu time spent up to now is       52.8 secs

     total energy              =    -318.48980707 Ry
     Harris-Foulkes estimate   =    -318.48980773 Ry
     estimated scf accuracy    <       0.00000140 Ry

     iteration #  6     ecut=    50.00 Ry     beta=0.70
     Davidson diagonalization with overlap
     ethr =  5.02E-09,  avg # of iterations =  4.0

     total cpu time spent up to now is       63.3 secs

     total energy              =    -318.48980782 Ry
     Harris-Foulkes estimate   =    -318.48980787 Ry
     estimated scf accuracy    <       0.00000007 Ry

     iteration #  7     ecut=    50.00 Ry     beta=0.70
     Davidson diagonalization with overlap
     ethr =  2.62E-10,  avg # of iterations =  3.1

     total cpu time spent up to now is       73.5 secs

     End of self-consistent calculation

     Number of k-points >= 100: set verbosity='high' to print the bands.

     highest occupied level (ev):     6.9653

!    total energy              =    -318.48980785 Ry
     Harris-Foulkes estimate   =    -318.48980785 Ry
     estimated scf accuracy    <          2.4E-09 Ry

     The total energy is the sum of the following terms:

     one-electron contribution =    -162.32213228 Ry
     hartree contribution      =      97.64879151 Ry
     xc contribution           =     -85.96075697 Ry
     ewald contribution        =    -167.85571012 Ry

     convergence has been achieved in   7 iterations

     Writing output data file sn.alpha.12.580.save

     init_run     :      3.72s CPU      3.83s WALL (       1 calls)
     electrons    :     68.13s CPU     69.66s WALL (       1 calls)

     Called by init_run:
     wfcinit      :      3.23s CPU      3.32s WALL (       1 calls)
     potinit      :      0.06s CPU      0.06s WALL (       1 calls)

     Called by electrons:
     c_bands      :     57.72s CPU     58.89s WALL (       7 calls)
     sum_band     :      9.57s CPU      9.83s WALL (       7 calls)
     v_of_rho     :      0.36s CPU      0.37s WALL (       8 calls)
     newd         :      0.52s CPU      0.59s WALL (       8 calls)
     mix_rho      :      0.03s CPU      0.03s WALL (       7 calls)

     Called by c_bands:
     init_us_2    :      1.15s CPU      1.17s WALL (    2730 calls)
     cegterg      :     55.54s CPU     56.68s WALL (    1274 calls)

     Called by sum_band:
     sum_band:bec :      0.01s CPU      0.01s WALL (    1274 calls)
     addusdens    :      0.53s CPU      0.63s WALL (       7 calls)

     Called by *egterg:
     h_psi        :     51.03s CPU     52.17s WALL (    5233 calls)
     s_psi        :      0.63s CPU      0.64s WALL (    5233 calls)
     g_psi        :      0.23s CPU      0.23s WALL (    3777 calls)
     cdiaghg      :      2.20s CPU      2.21s WALL (    5051 calls)

     Called by h_psi:
     h_psi:pot    :     50.75s CPU     51.88s WALL (    5233 calls)
     h_psi:calbec :      1.50s CPU      1.52s WALL (    5233 calls)
     vloc_psi     :     48.43s CPU     49.51s WALL (    5233 calls)
     add_vuspsi   :      0.81s CPU      0.82s WALL (    5233 calls)

     General routines
     calbec       :      1.85s CPU      1.87s WALL (    6507 calls)
     fft          :      0.16s CPU      0.17s WALL (     124 calls)
     ffts         :      0.01s CPU      0.01s WALL (      15 calls)
     fftw         :     48.25s CPU     49.33s WALL (  138358 calls)
     interpolate  :      0.04s CPU      0.04s WALL (      15 calls)
     davcio       :      0.00s CPU      0.01s WALL (     182 calls)

     Parallel routines
     fft_scatter  :      6.08s CPU      6.11s WALL (  138497 calls)

     PWSCF        :  1m12.16s CPU     1m16.78s WALL


   This run was terminated on:  16:44:56  11Nov2017            

=------------------------------------------------------------------------------=
   JOB DONE.
=------------------------------------------------------------------------------=
