
     Program PWSCF v.6.1 (svn rev. 13369) starts on 13Nov2017 at 10: 2:22 

     This program is part of the open-source Quantum ESPRESSO suite
     for quantum simulation of materials; please cite
         "P. Giannozzi et al., J. Phys.:Condens. Matter 21 395502 (2009);
          URL http://www.quantum-espresso.org", 
     in publications or presentations arising from this work. More details at
     http://www.quantum-espresso.org/quote

     Parallel version (MPI), running on     4 processors
     R & G space division:  proc/nbgrp/npool/nimage =       4
     Waiting for input...
     Reading input from standard input

     Current dimensions of program PWSCF are:
     Max number of different atomic species (ntypx) = 10
     Max number of k-points (npk) =  40000
     Max angular momentum in pseudopotentials (lmaxx) =  3

     Subspace diagonalization in iterative solution of the eigenvalue problem:
     a serial algorithm will be used


     Parallelization info
     --------------------
     sticks:   dense  smooth     PW     G-vecs:    dense   smooth      PW
     Min        1234     493    199                17718     4462    1165
     Max        1237     495    200                17719     4463    1166
     Sum        4941    1977    797                70873    17849    4661



     bravais-lattice index     =            0
     lattice parameter (alat)  =      11.3000  a.u.
     unit-cell volume          =     374.9153 (a.u.)^3
     number of atoms/cell      =            2
     number of atomic types    =            1
     number of electrons       =        28.00
     number of Kohn-Sham states=           18
     kinetic-energy cutoff     =      50.0000  Ry
     charge density cutoff     =     500.0000  Ry
     convergence threshold     =      1.0E-08
     mixing beta               =       0.7000
     number of iterations used =            8  plain     mixing
     Exchange-correlation      =  SLA  PW   PBX  PBC ( 1  4  3  4 0 0)

     celldm(1)=  11.300000  celldm(2)=   0.000000  celldm(3)=   0.000000
     celldm(4)=   0.000000  celldm(5)=   0.000000  celldm(6)=   0.000000

     crystal axes: (cart. coord. in units of alat)
               a(1) = (   0.986837   0.000000   0.000000 )  
               a(2) = (   0.000000   0.986837   0.000000 )  
               a(3) = (   0.493419   0.493419   0.266813 )  

     reciprocal axes: (cart. coord. in units 2 pi/alat)
               b(1) = (  1.013339  0.000000 -1.873974 )  
               b(2) = (  0.000000  1.013339 -1.873974 )  
               b(3) = (  0.000000  0.000000  3.747943 )  


     PseudoPot. # 1 for Sn read from file:
     /home/s1333534/quantum_espresso/qe-6.1/pseudo/sn_pbe_v1.4.uspp.F.UPF
     MD5 check sum: 469debedee59599fedebd795477fea03
     Pseudo is Ultrasoft + core correction, Zval = 14.0
     Generated by new atomic code, or converted to UPF format
     Using radial grid of  891 points,  6 beta functions with: 
                l(1) =   0
                l(2) =   0
                l(3) =   1
                l(4) =   1
                l(5) =   2
                l(6) =   2
     Q(r) pseudized with  8 coefficients,  rinner =    1.350   1.350   1.350
                                                       1.350   1.350

     atomic species   valence    mass     pseudopotential
        Sn            14.00   118.71000     Sn( 1.00)

     No symmetry found



   Cartesian axes

     site n.     atom                  positions (alat units)
         1           Sn  tau(   1) = (   1.0725850   1.3160481   0.0533919  )
         2           Sn  tau(   2) = (   0.5198369   0.2763739   0.0177973  )

     number of k points=   800  Marzari-Vanderbilt smearing, width (Ry)=  0.0200

     Number of k-points >= 100: set verbosity='high' to print them.

     Dense  grid:    70873 G-vectors     FFT dimensions: (  80,  80,  64)

     Smooth grid:    17849 G-vectors     FFT dimensions: (  54,  54,  40)

     Estimated max dynamical RAM per process >     138.71MB

     Estimated total allocated dynamical RAM >     554.85MB

     Initial potential from superposition of free atoms

     starting charge   25.99991, renormalised to   28.00000
     Starting wfc are   18 randomized atomic wfcs

     total cpu time spent up to now is       26.6 secs

     per-process dynamical memory:   149.1 Mb

     Self-consistent Calculation

     iteration #  1     ecut=    50.00 Ry     beta=0.70
     Davidson diagonalization with overlap
     ethr =  1.00E-02,  avg # of iterations =  3.9

     total cpu time spent up to now is      132.3 secs

     total energy              =    -317.50025315 Ry
     Harris-Foulkes estimate   =    -319.47269225 Ry
     estimated scf accuracy    <       2.41499398 Ry

     iteration #  2     ecut=    50.00 Ry     beta=0.70
     Davidson diagonalization with overlap
     ethr =  8.62E-03,  avg # of iterations =  2.6

     total cpu time spent up to now is      215.7 secs

     total energy              =    -318.35450921 Ry
     Harris-Foulkes estimate   =    -318.65467014 Ry
     estimated scf accuracy    <       0.44154855 Ry

     iteration #  3     ecut=    50.00 Ry     beta=0.70
     Davidson diagonalization with overlap
     ethr =  1.58E-03,  avg # of iterations =  2.0

     total cpu time spent up to now is      294.8 secs

     total energy              =    -318.44605430 Ry
     Harris-Foulkes estimate   =    -318.44780336 Ry
     estimated scf accuracy    <       0.00295190 Ry

     iteration #  4     ecut=    50.00 Ry     beta=0.70
     Davidson diagonalization with overlap
     ethr =  1.05E-05,  avg # of iterations =  3.6

     total cpu time spent up to now is      397.5 secs

     total energy              =    -318.44667866 Ry
     Harris-Foulkes estimate   =    -318.44684878 Ry
     estimated scf accuracy    <       0.00033813 Ry

     iteration #  5     ecut=    50.00 Ry     beta=0.70
     Davidson diagonalization with overlap
     ethr =  1.21E-06,  avg # of iterations =  2.6

     total cpu time spent up to now is      486.5 secs

     total energy              =    -318.44673260 Ry
     Harris-Foulkes estimate   =    -318.44674315 Ry
     estimated scf accuracy    <       0.00001825 Ry

     iteration #  6     ecut=    50.00 Ry     beta=0.70
     Davidson diagonalization with overlap
     ethr =  6.52E-08,  avg # of iterations =  3.0

     total cpu time spent up to now is      577.6 secs

     total energy              =    -318.44673966 Ry
     Harris-Foulkes estimate   =    -318.44674010 Ry
     estimated scf accuracy    <       0.00000095 Ry

     iteration #  7     ecut=    50.00 Ry     beta=0.70
     Davidson diagonalization with overlap
     ethr =  3.39E-09,  avg # of iterations =  2.7

     total cpu time spent up to now is      670.9 secs

     total energy              =    -318.44673979 Ry
     Harris-Foulkes estimate   =    -318.44673991 Ry
     estimated scf accuracy    <       0.00000018 Ry

     iteration #  8     ecut=    50.00 Ry     beta=0.70
     Davidson diagonalization with overlap
     ethr =  6.34E-10,  avg # of iterations =  3.0

     total cpu time spent up to now is      773.6 secs

     End of self-consistent calculation

     Number of k-points >= 100: set verbosity='high' to print the bands.

     the Fermi energy is    10.4207 ev

!    total energy              =    -318.44673985 Ry
     Harris-Foulkes estimate   =    -318.44673986 Ry
     estimated scf accuracy    <          8.0E-09 Ry

     The total energy is the sum of the following terms:

     one-electron contribution =    -118.58288084 Ry
     hartree contribution      =      79.33023383 Ry
     xc contribution           =     -86.04821046 Ry
     ewald contribution        =    -193.14590393 Ry
     smearing contrib. (-TS)   =       0.00002155 Ry

     convergence has been achieved in   8 iterations

     Writing output data file sn.beta.11.30.save

     init_run     :     25.36s CPU     26.55s WALL (       1 calls)
     electrons    :    702.05s CPU    747.06s WALL (       1 calls)

     Called by init_run:
     wfcinit      :     24.15s CPU     25.31s WALL (       1 calls)
     potinit      :      0.31s CPU      0.32s WALL (       1 calls)

     Called by electrons:
     c_bands      :    571.08s CPU    607.01s WALL (       8 calls)
     sum_band     :    129.14s CPU    137.90s WALL (       8 calls)
     v_of_rho     :      0.93s CPU      1.04s WALL (       9 calls)
     newd         :      0.94s CPU      1.07s WALL (       9 calls)
     mix_rho      :      0.10s CPU      0.11s WALL (       8 calls)

     Called by c_bands:
     init_us_2    :      4.10s CPU      4.30s WALL (   13600 calls)
     cegterg      :    562.34s CPU    597.77s WALL (    6400 calls)

     Called by sum_band:
     sum_band:bec :      0.08s CPU      0.10s WALL (    6400 calls)
     addusdens    :      1.05s CPU      1.30s WALL (       8 calls)

     Called by *egterg:
     h_psi        :    538.48s CPU    571.84s WALL (   25971 calls)
     s_psi        :      2.63s CPU      2.69s WALL (   25971 calls)
     g_psi        :      0.94s CPU      0.98s WALL (   18771 calls)
     cdiaghg      :     18.22s CPU     19.36s WALL (   25171 calls)

     Called by h_psi:
     h_psi:pot    :    537.16s CPU    570.42s WALL (   25971 calls)
     h_psi:calbec :      7.94s CPU      8.68s WALL (   25971 calls)
     vloc_psi     :    525.76s CPU    558.06s WALL (   25971 calls)
     add_vuspsi   :      3.43s CPU      3.57s WALL (   25971 calls)

     General routines
     calbec       :     10.87s CPU     11.96s WALL (   32371 calls)
     fft          :      0.75s CPU      0.88s WALL (     140 calls)
     ffts         :      0.02s CPU      0.02s WALL (      17 calls)
     fftw         :    424.23s CPU    454.73s WALL (  802726 calls)
     interpolate  :      0.11s CPU      0.13s WALL (      17 calls)
     davcio       :      0.02s CPU      0.04s WALL (     800 calls)

     Parallel routines
     fft_scatter  :    124.27s CPU    140.13s WALL (  802883 calls)

     PWSCF        : 12m 8.45s CPU    13m12.46s WALL


   This run was terminated on:  10:15:35  13Nov2017            

=------------------------------------------------------------------------------=
   JOB DONE.
=------------------------------------------------------------------------------=
