
     Program PWSCF v.6.1 (svn rev. 13369) starts on 11Nov2017 at 16:29: 0 

     This program is part of the open-source Quantum ESPRESSO suite
     for quantum simulation of materials; please cite
         "P. Giannozzi et al., J. Phys.:Condens. Matter 21 395502 (2009);
          URL http://www.quantum-espresso.org", 
     in publications or presentations arising from this work. More details at
     http://www.quantum-espresso.org/quote

     Parallel version (MPI), running on     4 processors
     R & G space division:  proc/nbgrp/npool/nimage =       4
     Waiting for input...
     Reading input from standard input
     Message from routine read_cards :
     DEPRECATED: no units specified in ATOMIC_POSITIONS card
     Message from routine read_cards :
     ATOMIC_POSITIONS: units set to alat

     Current dimensions of program PWSCF are:
     Max number of different atomic species (ntypx) = 10
     Max number of k-points (npk) =  40000
     Max angular momentum in pseudopotentials (lmaxx) =  3

     Subspace diagonalization in iterative solution of the eigenvalue problem:
     a serial algorithm will be used


     Parallelization info
     --------------------
     sticks:   dense  smooth     PW     G-vecs:    dense   smooth      PW
     Min         540     267     82                16574     5850     985
     Max         541     268     85                16577     5854     986
     Sum        2161    1069    337                66299    23409    3943



     bravais-lattice index     =            2
     lattice parameter (alat)  =      12.5240  a.u.
     unit-cell volume          =     491.0992 (a.u.)^3
     number of atoms/cell      =            2
     number of atomic types    =            1
     number of electrons       =        28.00
     number of Kohn-Sham states=           14
     kinetic-energy cutoff     =      50.0000  Ry
     charge density cutoff     =     400.0000  Ry
     convergence threshold     =      1.0E-08
     mixing beta               =       0.7000
     number of iterations used =            8  plain     mixing
     Exchange-correlation      =  SLA  PW   PBX  PBC ( 1  4  3  4 0 0)

     celldm(1)=  12.524000  celldm(2)=   0.000000  celldm(3)=   0.000000
     celldm(4)=   0.000000  celldm(5)=   0.000000  celldm(6)=   0.000000

     crystal axes: (cart. coord. in units of alat)
               a(1) = (  -0.500000   0.000000   0.500000 )  
               a(2) = (   0.000000   0.500000   0.500000 )  
               a(3) = (  -0.500000   0.500000   0.000000 )  

     reciprocal axes: (cart. coord. in units 2 pi/alat)
               b(1) = ( -1.000000 -1.000000  1.000000 )  
               b(2) = (  1.000000  1.000000  1.000000 )  
               b(3) = ( -1.000000  1.000000 -1.000000 )  


     PseudoPot. # 1 for Sn read from file:
     /home/s1333534/quantum_espresso/qe-6.1/pseudo/sn_pbe_v1.4.uspp.F.UPF
     MD5 check sum: 469debedee59599fedebd795477fea03
     Pseudo is Ultrasoft + core correction, Zval = 14.0
     Generated by new atomic code, or converted to UPF format
     Using radial grid of  891 points,  6 beta functions with: 
                l(1) =   0
                l(2) =   0
                l(3) =   1
                l(4) =   1
                l(5) =   2
                l(6) =   2
     Q(r) pseudized with  8 coefficients,  rinner =    1.350   1.350   1.350
                                                       1.350   1.350

     atomic species   valence    mass     pseudopotential
        Sn            14.00   118.71000     Sn( 1.00)

     48 Sym. Ops., with inversion, found (24 have fractional translation)



   Cartesian axes

     site n.     atom                  positions (alat units)
         1           Sn  tau(   1) = (   0.0000000   0.0000000   0.0000000  )
         2           Sn  tau(   2) = (   0.2500000   0.2500000   0.2500000  )

     number of k points=   182

     Number of k-points >= 100: set verbosity='high' to print them.

     Dense  grid:    66299 G-vectors     FFT dimensions: (  60,  60,  60)

     Smooth grid:    23409 G-vectors     FFT dimensions: (  40,  40,  40)

     Estimated max dynamical RAM per process >      40.68MB

     Estimated total allocated dynamical RAM >     162.71MB

     Initial potential from superposition of free atoms

     starting charge   25.99991, renormalised to   28.00000
     Starting wfc are   18 randomized atomic wfcs

     total cpu time spent up to now is        2.9 secs

     per-process dynamical memory:    45.8 Mb

     Self-consistent Calculation

     iteration #  1     ecut=    50.00 Ry     beta=0.70
     Davidson diagonalization with overlap
     ethr =  1.00E-02,  avg # of iterations =  2.7

     total cpu time spent up to now is        9.8 secs

     total energy              =    -317.48616642 Ry
     Harris-Foulkes estimate   =    -319.54679029 Ry
     estimated scf accuracy    <       2.51071822 Ry

     iteration #  2     ecut=    50.00 Ry     beta=0.70
     Davidson diagonalization with overlap
     ethr =  8.97E-03,  avg # of iterations =  3.0

     total cpu time spent up to now is       17.4 secs

     total energy              =    -318.39379963 Ry
     Harris-Foulkes estimate   =    -318.71186704 Ry
     estimated scf accuracy    <       0.47374359 Ry

     iteration #  3     ecut=    50.00 Ry     beta=0.70
     Davidson diagonalization with overlap
     ethr =  1.69E-03,  avg # of iterations =  2.0

     total cpu time spent up to now is       24.1 secs

     total energy              =    -318.48881959 Ry
     Harris-Foulkes estimate   =    -318.49039325 Ry
     estimated scf accuracy    <       0.00288251 Ry

     iteration #  4     ecut=    50.00 Ry     beta=0.70
     Davidson diagonalization with overlap
     ethr =  1.03E-05,  avg # of iterations =  3.0

     total cpu time spent up to now is       31.3 secs

     total energy              =    -318.48971078 Ry
     Harris-Foulkes estimate   =    -318.48982827 Ry
     estimated scf accuracy    <       0.00017417 Ry

     iteration #  5     ecut=    50.00 Ry     beta=0.70
     Davidson diagonalization with overlap
     ethr =  6.22E-07,  avg # of iterations =  3.0

     total cpu time spent up to now is       38.5 secs

     total energy              =    -318.48976412 Ry
     Harris-Foulkes estimate   =    -318.48976481 Ry
     estimated scf accuracy    <       0.00000145 Ry

     iteration #  6     ecut=    50.00 Ry     beta=0.70
     Davidson diagonalization with overlap
     ethr =  5.18E-09,  avg # of iterations =  4.0

     total cpu time spent up to now is       46.3 secs

     total energy              =    -318.48976490 Ry
     Harris-Foulkes estimate   =    -318.48976495 Ry
     estimated scf accuracy    <       0.00000008 Ry

     iteration #  7     ecut=    50.00 Ry     beta=0.70
     Davidson diagonalization with overlap
     ethr =  2.69E-10,  avg # of iterations =  3.1

     total cpu time spent up to now is       53.8 secs

     End of self-consistent calculation

     Number of k-points >= 100: set verbosity='high' to print the bands.

     highest occupied level (ev):     7.1224

!    total energy              =    -318.48976493 Ry
     Harris-Foulkes estimate   =    -318.48976493 Ry
     estimated scf accuracy    <          2.5E-09 Ry

     The total energy is the sum of the following terms:

     one-electron contribution =    -161.09472070 Ry
     hartree contribution      =      97.18438225 Ry
     xc contribution           =     -85.97316384 Ry
     ewald contribution        =    -168.60626264 Ry

     convergence has been achieved in   7 iterations

     Writing output data file sn.alpha.12.524.save

     init_run     :      2.71s CPU      2.82s WALL (       1 calls)
     electrons    :     49.49s CPU     50.91s WALL (       1 calls)

     Called by init_run:
     wfcinit      :      2.23s CPU      2.32s WALL (       1 calls)
     potinit      :      0.05s CPU      0.06s WALL (       1 calls)

     Called by electrons:
     c_bands      :     41.72s CPU     42.79s WALL (       7 calls)
     sum_band     :      6.93s CPU      7.18s WALL (       7 calls)
     v_of_rho     :      0.36s CPU      0.37s WALL (       8 calls)
     newd         :      0.51s CPU      0.57s WALL (       8 calls)
     mix_rho      :      0.03s CPU      0.03s WALL (       7 calls)

     Called by c_bands:
     init_us_2    :      1.17s CPU      1.19s WALL (    2730 calls)
     cegterg      :     39.58s CPU     40.63s WALL (    1274 calls)

     Called by sum_band:
     sum_band:bec :      0.01s CPU      0.01s WALL (    1274 calls)
     addusdens    :      0.55s CPU      0.65s WALL (       7 calls)

     Called by *egterg:
     h_psi        :     34.06s CPU     35.11s WALL (    5246 calls)
     s_psi        :      0.63s CPU      0.64s WALL (    5246 calls)
     g_psi        :      0.23s CPU      0.23s WALL (    3790 calls)
     cdiaghg      :      2.25s CPU      2.25s WALL (    5064 calls)

     Called by h_psi:
     h_psi:pot    :     33.76s CPU     34.80s WALL (    5246 calls)
     h_psi:calbec :      1.48s CPU      1.51s WALL (    5246 calls)
     vloc_psi     :     31.50s CPU     32.47s WALL (    5246 calls)
     add_vuspsi   :      0.77s CPU      0.80s WALL (    5246 calls)

     General routines
     calbec       :      1.85s CPU      1.89s WALL (    6520 calls)
     fft          :      0.17s CPU      0.18s WALL (     124 calls)
     ffts         :      0.01s CPU      0.01s WALL (      15 calls)
     fftw         :     29.43s CPU     30.42s WALL (  138414 calls)
     interpolate  :      0.03s CPU      0.04s WALL (      15 calls)
     davcio       :      0.00s CPU      0.01s WALL (     182 calls)

     Parallel routines
     fft_scatter  :      5.02s CPU      4.86s WALL (  138553 calls)

     PWSCF        :    52.52s CPU        57.02s WALL


   This run was terminated on:  16:29:57  11Nov2017            

=------------------------------------------------------------------------------=
   JOB DONE.
=------------------------------------------------------------------------------=
