
     Program PWSCF v.6.1 (svn rev. 13369) starts on 13Nov2017 at  2:46:38 

     This program is part of the open-source Quantum ESPRESSO suite
     for quantum simulation of materials; please cite
         "P. Giannozzi et al., J. Phys.:Condens. Matter 21 395502 (2009);
          URL http://www.quantum-espresso.org", 
     in publications or presentations arising from this work. More details at
     http://www.quantum-espresso.org/quote

     Parallel version (MPI), running on     4 processors
     R & G space division:  proc/nbgrp/npool/nimage =       4
     Waiting for input...
     Reading input from standard input

     Current dimensions of program PWSCF are:
     Max number of different atomic species (ntypx) = 10
     Max number of k-points (npk) =  40000
     Max angular momentum in pseudopotentials (lmaxx) =  3

     Subspace diagonalization in iterative solution of the eigenvalue problem:
     a serial algorithm will be used


     Parallelization info
     --------------------
     sticks:   dense  smooth     PW     G-vecs:    dense   smooth      PW
     Min        1253     501    199                18121     4584    1173
     Max        1255     503    200                18122     4585    1174
     Sum        5017    2009    797                72485    18337    4693



     bravais-lattice index     =            0
     lattice parameter (alat)  =      11.3900  a.u.
     unit-cell volume          =     383.9450 (a.u.)^3
     number of atoms/cell      =            2
     number of atomic types    =            1
     number of electrons       =        28.00
     number of Kohn-Sham states=           18
     kinetic-energy cutoff     =      50.0000  Ry
     charge density cutoff     =     500.0000  Ry
     convergence threshold     =      1.0E-08
     mixing beta               =       0.7000
     number of iterations used =            8  plain     mixing
     Exchange-correlation      =  SLA  PW   PBX  PBC ( 1  4  3  4 0 0)

     celldm(1)=  11.390000  celldm(2)=   0.000000  celldm(3)=   0.000000
     celldm(4)=   0.000000  celldm(5)=   0.000000  celldm(6)=   0.000000

     crystal axes: (cart. coord. in units of alat)
               a(1) = (   0.986837   0.000000   0.000000 )  
               a(2) = (   0.000000   0.986837   0.000000 )  
               a(3) = (   0.493419   0.493419   0.266813 )  

     reciprocal axes: (cart. coord. in units 2 pi/alat)
               b(1) = (  1.013339  0.000000 -1.873974 )  
               b(2) = (  0.000000  1.013339 -1.873974 )  
               b(3) = (  0.000000  0.000000  3.747943 )  


     PseudoPot. # 1 for Sn read from file:
     /home/s1333534/quantum_espresso/qe-6.1/pseudo/sn_pbe_v1.4.uspp.F.UPF
     MD5 check sum: 469debedee59599fedebd795477fea03
     Pseudo is Ultrasoft + core correction, Zval = 14.0
     Generated by new atomic code, or converted to UPF format
     Using radial grid of  891 points,  6 beta functions with: 
                l(1) =   0
                l(2) =   0
                l(3) =   1
                l(4) =   1
                l(5) =   2
                l(6) =   2
     Q(r) pseudized with  8 coefficients,  rinner =    1.350   1.350   1.350
                                                       1.350   1.350

     atomic species   valence    mass     pseudopotential
        Sn            14.00   118.71000     Sn( 1.00)

     No symmetry found



   Cartesian axes

     site n.     atom                  positions (alat units)
         1           Sn  tau(   1) = (   1.0725850   1.3160481   0.0533919  )
         2           Sn  tau(   2) = (   0.5198369   0.2763739   0.0177973  )

     number of k points=   448  Marzari-Vanderbilt smearing, width (Ry)=  0.0200

     Number of k-points >= 100: set verbosity='high' to print them.

     Dense  grid:    72485 G-vectors     FFT dimensions: (  81,  81,  64)

     Smooth grid:    18337 G-vectors     FFT dimensions: (  54,  54,  40)

     Estimated max dynamical RAM per process >      86.77MB

     Estimated total allocated dynamical RAM >     347.07MB

     Initial potential from superposition of free atoms

     starting charge   25.99991, renormalised to   28.00000
     Starting wfc are   18 randomized atomic wfcs

     total cpu time spent up to now is       13.8 secs

     per-process dynamical memory:    91.9 Mb

     Self-consistent Calculation

     iteration #  1     ecut=    50.00 Ry     beta=0.70
     Davidson diagonalization with overlap
     ethr =  1.00E-02,  avg # of iterations =  3.9

     total cpu time spent up to now is       66.1 secs

     total energy              =    -317.49865387 Ry
     Harris-Foulkes estimate   =    -319.48227740 Ry
     estimated scf accuracy    <       2.42847011 Ry

     iteration #  2     ecut=    50.00 Ry     beta=0.70
     Davidson diagonalization with overlap
     ethr =  8.67E-03,  avg # of iterations =  2.6

     total cpu time spent up to now is      112.2 secs

     total energy              =    -318.35780147 Ry
     Harris-Foulkes estimate   =    -318.66008770 Ry
     estimated scf accuracy    <       0.44455229 Ry

     iteration #  3     ecut=    50.00 Ry     beta=0.70
     Davidson diagonalization with overlap
     ethr =  1.59E-03,  avg # of iterations =  2.0

     total cpu time spent up to now is      157.0 secs

     total energy              =    -318.44997810 Ry
     Harris-Foulkes estimate   =    -318.45172753 Ry
     estimated scf accuracy    <       0.00295123 Ry

     iteration #  4     ecut=    50.00 Ry     beta=0.70
     Davidson diagonalization with overlap
     ethr =  1.05E-05,  avg # of iterations =  3.6

     total cpu time spent up to now is      205.5 secs

     total energy              =    -318.45060155 Ry
     Harris-Foulkes estimate   =    -318.45077104 Ry
     estimated scf accuracy    <       0.00033600 Ry

     iteration #  5     ecut=    50.00 Ry     beta=0.70
     Davidson diagonalization with overlap
     ethr =  1.20E-06,  avg # of iterations =  2.7

     total cpu time spent up to now is      242.3 secs

     total energy              =    -318.45065507 Ry
     Harris-Foulkes estimate   =    -318.45066564 Ry
     estimated scf accuracy    <       0.00001805 Ry

     iteration #  6     ecut=    50.00 Ry     beta=0.70
     Davidson diagonalization with overlap
     ethr =  6.45E-08,  avg # of iterations =  3.0

     total cpu time spent up to now is      290.8 secs

     total energy              =    -318.45066210 Ry
     Harris-Foulkes estimate   =    -318.45066249 Ry
     estimated scf accuracy    <       0.00000088 Ry

     iteration #  7     ecut=    50.00 Ry     beta=0.70
     Davidson diagonalization with overlap
     ethr =  3.14E-09,  avg # of iterations =  2.7

     total cpu time spent up to now is      332.8 secs

     total energy              =    -318.45066221 Ry
     Harris-Foulkes estimate   =    -318.45066233 Ry
     estimated scf accuracy    <       0.00000018 Ry

     iteration #  8     ecut=    50.00 Ry     beta=0.70
     Davidson diagonalization with overlap
     ethr =  6.32E-10,  avg # of iterations =  3.0

     total cpu time spent up to now is      381.3 secs

     End of self-consistent calculation

     Number of k-points >= 100: set verbosity='high' to print the bands.

     the Fermi energy is    10.0479 ev

!    total energy              =    -318.45066227 Ry
     Harris-Foulkes estimate   =    -318.45066228 Ry
     estimated scf accuracy    <          7.8E-09 Ry

     The total energy is the sum of the following terms:

     one-electron contribution =    -121.01197641 Ry
     hartree contribution      =      80.20236852 Ry
     xc contribution           =     -86.02144580 Ry
     ewald contribution        =    -191.61972910 Ry
     smearing contrib. (-TS)   =       0.00012051 Ry

     convergence has been achieved in   8 iterations

     Writing output data file sn.beta.11.39.save

     init_run     :     13.47s CPU     13.75s WALL (       1 calls)
     electrons    :    359.59s CPU    367.58s WALL (       1 calls)

     Called by init_run:
     wfcinit      :     12.34s CPU     12.59s WALL (       1 calls)
     potinit      :      0.32s CPU      0.33s WALL (       1 calls)

     Called by electrons:
     c_bands      :    293.26s CPU    299.88s WALL (       8 calls)
     sum_band     :     64.42s CPU     65.62s WALL (       8 calls)
     v_of_rho     :      0.99s CPU      1.04s WALL (       9 calls)
     newd         :      0.93s CPU      0.99s WALL (       9 calls)
     mix_rho      :      0.11s CPU      0.11s WALL (       8 calls)

     Called by c_bands:
     init_us_2    :      2.25s CPU      2.29s WALL (    7616 calls)
     cegterg      :    288.62s CPU    295.12s WALL (    3584 calls)

     Called by sum_band:
     sum_band:bec :      0.05s CPU      0.05s WALL (    3584 calls)
     addusdens    :      1.04s CPU      1.17s WALL (       8 calls)

     Called by *egterg:
     h_psi        :    276.63s CPU    282.98s WALL (   14534 calls)
     s_psi        :      1.61s CPU      1.63s WALL (   14534 calls)
     g_psi        :      0.53s CPU      0.54s WALL (   10502 calls)
     cdiaghg      :      9.06s CPU      9.19s WALL (   14086 calls)

     Called by h_psi:
     h_psi:pot    :    275.77s CPU    282.10s WALL (   14534 calls)
     h_psi:calbec :      3.91s CPU      3.96s WALL (   14534 calls)
     vloc_psi     :    269.76s CPU    275.99s WALL (   14534 calls)
     add_vuspsi   :      2.08s CPU      2.10s WALL (   14534 calls)

     General routines
     calbec       :      5.18s CPU      5.22s WALL (   18118 calls)
     fft          :      0.71s CPU      0.77s WALL (     140 calls)
     ffts         :      0.01s CPU      0.01s WALL (      17 calls)
     fftw         :    206.49s CPU    211.44s WALL (  448028 calls)
     interpolate  :      0.12s CPU      0.12s WALL (      17 calls)
     davcio       :      0.01s CPU      0.02s WALL (     448 calls)

     Parallel routines
     fft_scatter  :     39.05s CPU     40.29s WALL (  448185 calls)

     PWSCF        :  6m13.69s CPU     6m29.60s WALL


   This run was terminated on:   2:53: 8  13Nov2017            

=------------------------------------------------------------------------------=
   JOB DONE.
=------------------------------------------------------------------------------=
