
     Program PWSCF v.6.1 (svn rev. 13369) starts on 13Nov2017 at  2:15:16 

     This program is part of the open-source Quantum ESPRESSO suite
     for quantum simulation of materials; please cite
         "P. Giannozzi et al., J. Phys.:Condens. Matter 21 395502 (2009);
          URL http://www.quantum-espresso.org", 
     in publications or presentations arising from this work. More details at
     http://www.quantum-espresso.org/quote

     Parallel version (MPI), running on     4 processors
     R & G space division:  proc/nbgrp/npool/nimage =       4
     Waiting for input...
     Reading input from standard input

     Current dimensions of program PWSCF are:
     Max number of different atomic species (ntypx) = 10
     Max number of k-points (npk) =  40000
     Max angular momentum in pseudopotentials (lmaxx) =  3

     Subspace diagonalization in iterative solution of the eigenvalue problem:
     a serial algorithm will be used


     Parallelization info
     --------------------
     sticks:   dense  smooth     PW     G-vecs:    dense   smooth      PW
     Min        1223     485    198                17407     4402    1122
     Max        1227     486    199                17408     4403    1123
     Sum        4897    1941    793                69629    17609    4489



     bravais-lattice index     =            0
     lattice parameter (alat)  =      11.2400  a.u.
     unit-cell volume          =     368.9749 (a.u.)^3
     number of atoms/cell      =            2
     number of atomic types    =            1
     number of electrons       =        28.00
     number of Kohn-Sham states=           18
     kinetic-energy cutoff     =      50.0000  Ry
     charge density cutoff     =     500.0000  Ry
     convergence threshold     =      1.0E-08
     mixing beta               =       0.7000
     number of iterations used =            8  plain     mixing
     Exchange-correlation      =  SLA  PW   PBX  PBC ( 1  4  3  4 0 0)

     celldm(1)=  11.240000  celldm(2)=   0.000000  celldm(3)=   0.000000
     celldm(4)=   0.000000  celldm(5)=   0.000000  celldm(6)=   0.000000

     crystal axes: (cart. coord. in units of alat)
               a(1) = (   0.986837   0.000000   0.000000 )  
               a(2) = (   0.000000   0.986837   0.000000 )  
               a(3) = (   0.493419   0.493419   0.266813 )  

     reciprocal axes: (cart. coord. in units 2 pi/alat)
               b(1) = (  1.013339  0.000000 -1.873974 )  
               b(2) = (  0.000000  1.013339 -1.873974 )  
               b(3) = (  0.000000  0.000000  3.747943 )  


     PseudoPot. # 1 for Sn read from file:
     /home/s1333534/quantum_espresso/qe-6.1/pseudo/sn_pbe_v1.4.uspp.F.UPF
     MD5 check sum: 469debedee59599fedebd795477fea03
     Pseudo is Ultrasoft + core correction, Zval = 14.0
     Generated by new atomic code, or converted to UPF format
     Using radial grid of  891 points,  6 beta functions with: 
                l(1) =   0
                l(2) =   0
                l(3) =   1
                l(4) =   1
                l(5) =   2
                l(6) =   2
     Q(r) pseudized with  8 coefficients,  rinner =    1.350   1.350   1.350
                                                       1.350   1.350

     atomic species   valence    mass     pseudopotential
        Sn            14.00   118.71000     Sn( 1.00)

     No symmetry found



   Cartesian axes

     site n.     atom                  positions (alat units)
         1           Sn  tau(   1) = (   1.0725850   1.3160481   0.0533919  )
         2           Sn  tau(   2) = (   0.5198369   0.2763739   0.0177973  )

     number of k points=   448  Marzari-Vanderbilt smearing, width (Ry)=  0.0200

     Number of k-points >= 100: set verbosity='high' to print them.

     Dense  grid:    69629 G-vectors     FFT dimensions: (  80,  80,  60)

     Smooth grid:    17609 G-vectors     FFT dimensions: (  50,  50,  40)

     Estimated max dynamical RAM per process >      82.97MB

     Estimated total allocated dynamical RAM >     331.88MB

     Initial potential from superposition of free atoms

     starting charge   25.99991, renormalised to   28.00000
     Starting wfc are   18 randomized atomic wfcs

     total cpu time spent up to now is       12.4 secs

     per-process dynamical memory:    90.2 Mb

     Self-consistent Calculation

     iteration #  1     ecut=    50.00 Ry     beta=0.70
     Davidson diagonalization with overlap
     ethr =  1.00E-02,  avg # of iterations =  3.9

     total cpu time spent up to now is       58.2 secs

     total energy              =    -317.50212246 Ry
     Harris-Foulkes estimate   =    -319.46740285 Ry
     estimated scf accuracy    <       2.40647279 Ry

     iteration #  2     ecut=    50.00 Ry     beta=0.70
     Davidson diagonalization with overlap
     ethr =  8.59E-03,  avg # of iterations =  2.6

     total cpu time spent up to now is       98.3 secs

     total energy              =    -318.35306045 Ry
     Harris-Foulkes estimate   =    -318.65161872 Ry
     estimated scf accuracy    <       0.43919817 Ry

     iteration #  3     ecut=    50.00 Ry     beta=0.70
     Davidson diagonalization with overlap
     ethr =  1.57E-03,  avg # of iterations =  2.0

     total cpu time spent up to now is      137.4 secs

     total energy              =    -318.44409743 Ry
     Harris-Foulkes estimate   =    -318.44581302 Ry
     estimated scf accuracy    <       0.00290302 Ry

     iteration #  4     ecut=    50.00 Ry     beta=0.70
     Davidson diagonalization with overlap
     ethr =  1.04E-05,  avg # of iterations =  3.6

     total cpu time spent up to now is      181.2 secs

     total energy              =    -318.44471075 Ry
     Harris-Foulkes estimate   =    -318.44487306 Ry
     estimated scf accuracy    <       0.00032322 Ry

     iteration #  5     ecut=    50.00 Ry     beta=0.70
     Davidson diagonalization with overlap
     ethr =  1.15E-06,  avg # of iterations =  2.6

     total cpu time spent up to now is      215.0 secs

     total energy              =    -318.44476189 Ry
     Harris-Foulkes estimate   =    -318.44477222 Ry
     estimated scf accuracy    <       0.00001777 Ry

     iteration #  6     ecut=    50.00 Ry     beta=0.70
     Davidson diagonalization with overlap
     ethr =  6.35E-08,  avg # of iterations =  3.0

     total cpu time spent up to now is      257.5 secs

     total energy              =    -318.44476870 Ry
     Harris-Foulkes estimate   =    -318.44476909 Ry
     estimated scf accuracy    <       0.00000087 Ry

     iteration #  7     ecut=    50.00 Ry     beta=0.70
     Davidson diagonalization with overlap
     ethr =  3.09E-09,  avg # of iterations =  2.8

     total cpu time spent up to now is      294.6 secs

     total energy              =    -318.44476882 Ry
     Harris-Foulkes estimate   =    -318.44476894 Ry
     estimated scf accuracy    <       0.00000017 Ry

     iteration #  8     ecut=    50.00 Ry     beta=0.70
     Davidson diagonalization with overlap
     ethr =  6.19E-10,  avg # of iterations =  3.0

     total cpu time spent up to now is      336.1 secs

     End of self-consistent calculation

     Number of k-points >= 100: set verbosity='high' to print the bands.

     the Fermi energy is    10.6328 ev

!    total energy              =    -318.44476888 Ry
     Harris-Foulkes estimate   =    -318.44476888 Ry
     estimated scf accuracy    <          6.7E-09 Ry

     The total energy is the sum of the following terms:

     one-electron contribution =    -116.94130404 Ry
     hartree contribution      =      78.73939759 Ry
     xc contribution           =     -86.06602420 Ry
     ewald contribution        =    -194.17693189 Ry
     smearing contrib. (-TS)   =       0.00009366 Ry

     convergence has been achieved in   8 iterations

     Writing output data file sn.beta.11.24.save

     init_run     :     12.01s CPU     12.30s WALL (       1 calls)
     electrons    :    316.83s CPU    323.83s WALL (       1 calls)

     Called by init_run:
     wfcinit      :     10.92s CPU     11.18s WALL (       1 calls)
     potinit      :      0.30s CPU      0.30s WALL (       1 calls)

     Called by electrons:
     c_bands      :    258.61s CPU    264.34s WALL (       8 calls)
     sum_band     :     56.49s CPU     57.61s WALL (       8 calls)
     v_of_rho     :      0.85s CPU      0.90s WALL (       9 calls)
     newd         :      0.90s CPU      0.96s WALL (       9 calls)
     mix_rho      :      0.08s CPU      0.09s WALL (       8 calls)

     Called by c_bands:
     init_us_2    :      2.27s CPU      2.33s WALL (    7616 calls)
     cegterg      :    254.04s CPU    259.65s WALL (    3584 calls)

     Called by sum_band:
     sum_band:bec :      0.04s CPU      0.05s WALL (    3584 calls)
     addusdens    :      1.01s CPU      1.12s WALL (       8 calls)

     Called by *egterg:
     h_psi        :    241.18s CPU    246.68s WALL (   14549 calls)
     s_psi        :      1.45s CPU      1.49s WALL (   14549 calls)
     g_psi        :      0.53s CPU      0.53s WALL (   10517 calls)
     cdiaghg      :      9.11s CPU      9.22s WALL (   14101 calls)

     Called by h_psi:
     h_psi:pot    :    240.41s CPU    245.89s WALL (   14549 calls)
     h_psi:calbec :      3.75s CPU      3.79s WALL (   14549 calls)
     vloc_psi     :    234.73s CPU    240.11s WALL (   14549 calls)
     add_vuspsi   :      1.91s CPU      1.94s WALL (   14549 calls)

     General routines
     calbec       :      4.94s CPU      4.98s WALL (   18133 calls)
     fft          :      0.56s CPU      0.62s WALL (     140 calls)
     ffts         :      0.02s CPU      0.02s WALL (      17 calls)
     fftw         :    184.49s CPU    188.76s WALL (  448296 calls)
     interpolate  :      0.10s CPU      0.11s WALL (      17 calls)
     davcio       :      0.01s CPU      0.02s WALL (     448 calls)

     Parallel routines
     fft_scatter  :     34.70s CPU     35.75s WALL (  448453 calls)

     PWSCF        :  5m29.48s CPU     5m44.12s WALL


   This run was terminated on:   2:21: 0  13Nov2017            

=------------------------------------------------------------------------------=
   JOB DONE.
=------------------------------------------------------------------------------=
